 Entering Gaussian System, Link 0=gdv
 Input=2h2o_geo_opt.gjf
 Output=2h2o_geo_opt.log
 Initial command:
 /sw/contrib/gaussian/gdv/I13p/gdv/l1.exe "/gscratch/chem/al777/IDream/2H2O/geo_opt/ccsd_631ppgss/Gau-18850.inp" -scrdir="/gscratch/chem/al777/IDream/2H2O/geo_opt/ccsd_631ppgss/"
 Entering Link 1 = /sw/contrib/gaussian/gdv/I13p/gdv/l1.exe PID=     18866.
  
 Copyright (c) 1988-2018, Gaussian, Inc.  All Rights Reserved.
  
 This is the private, development version of
 the Gaussian(R) DV system of programs. It is based on
 the Gaussian(R) 16 system (copyright 2016, Gaussian, Inc.),
 the Gaussian(R) 09 system (copyright 2009, Gaussian, Inc.),
 the Gaussian(R) 03 system (copyright 2003, Gaussian, Inc.),
 the Gaussian(R) 98 system (copyright 1998, Gaussian, Inc.),
 the Gaussian(R) 94 system (copyright 1995, Gaussian, Inc.),
 the Gaussian 92(TM) system (copyright 1992, Gaussian, Inc.),
 the Gaussian 90(TM) system (copyright 1990, Gaussian, Inc.),
 the Gaussian 88(TM) system (copyright 1988, Gaussian, Inc.),
 the Gaussian 86(TM) system (copyright 1986, Carnegie Mellon
 University), and the Gaussian 82(TM) system (copyright 1983,
 Carnegie Mellon University). Gaussian is a federally registered
 trademark of Gaussian, Inc.
  
 This software contains proprietary and confidential information,
 including trade secrets, belonging to Gaussian, Inc.
  
 This software is provided under written license and may be
 used, copied, transmitted, or stored only in accord with that
 written license.
  
 The following legend is applicable only to US Government
 contracts under FAR:
  
                    RESTRICTED RIGHTS LEGEND
  
 Use, reproduction and disclosure by the US Government is
 subject to restrictions as set forth in subparagraphs (a)
 and (c) of the Commercial Computer Software - Restricted
 Rights clause in FAR 52.227-19.
  
 Gaussian, Inc.
 340 Quinnipiac St., Bldg. 40, Wallingford CT 06492
  
  
 ---------------------------------------------------------------
 Warning -- This program may not be used in any manner that
 competes with the business of Gaussian, Inc. or will provide
 assistance to any competitor of Gaussian, Inc.  The licensee
 of this program is prohibited from giving any competitor of
 Gaussian, Inc. access to this program.  By using this program,
 the user acknowledges that Gaussian, Inc. is engaged in the
 business of creating and licensing software in the field of
 computational chemistry and represents and warrants to the
 licensee that it is not a competitor of Gaussian, Inc. and that
 it will not use this program in any manner prohibited above.
 ---------------------------------------------------------------
  

 Cite this work as:
 Gaussian Development Version, Revision I.13+,
 M. J. Frisch, G. W. Trucks, H. B. Schlegel, G. E. Scuseria, 
 M. A. Robb, J. R. Cheeseman, G. Scalmani, V. Barone, 
 G. A. Petersson, H. Nakatsuji, X. Li, M. Caricato, A. V. Marenich, 
 J. Bloino, B. G. Janesko, R. Gomperts, B. Mennucci, H. P. Hratchian, 
 J. V. Ortiz, A. F. Izmaylov, J. L. Sonnenberg, D. Williams-Young, 
 F. Ding, F. Lipparini, F. Egidi, J. Goings, B. Peng, A. Petrone, 
 T. Henderson, D. Ranasinghe, V. G. Zakrzewski, J. Gao, N. Rega, 
 G. Zheng, W. Liang, M. Hada, M. Ehara, K. Toyota, R. Fukuda, 
 J. Hasegawa, M. Ishida, T. Nakajima, Y. Honda, O. Kitao, H. Nakai, 
 T. Vreven, K. Throssell, J. A. Montgomery, Jr., J. E. Peralta, 
 F. Ogliaro, M. J. Bearpark, J. J. Heyd, E. N. Brothers, K. N. Kudin, 
 V. N. Staroverov, T. A. Keith, R. Kobayashi, J. Normand, 
 K. Raghavachari, A. P. Rendell, J. C. Burant, S. S. Iyengar, 
 J. Tomasi, M. Cossi, J. M. Millam, M. Klene, C. Adamo, R. Cammi, 
 J. W. Ochterski, R. L. Martin, K. Morokuma, O. Farkas, 
 J. B. Foresman, and D. J. Fox, Gaussian, Inc., Wallingford CT, 2018.
 
 *******************************************
 Gaussian DV:  ES64L-GDVRevI.13+ 15-Apr-2018
                 23-Feb-2022 
 *******************************************
 %mem=243GB
 %nprocshared=28
 Will use up to   28 processors via shared memory.
 %chk=2h2o.chk
 --------------------------
 #p opt freq ccsd/6-31++G**
 --------------------------
 1/18=20,19=15,38=1/1,3;
 2/9=110,12=2,17=6,18=5,40=1/2;
 3/5=1,6=6,7=1111,11=9,25=1,30=1,71=1/1,2,3;
 4//1;
 5/5=2,38=5/2;
 8/6=4,9=120000,10=2/1,4;
 9/5=7,15=1/13;
 11/28=-8,29=200,42=3/11;
 10/5=6/2;
 6/7=2,8=2,9=2,10=2/1;
 7/12=7/1,2,3,16;
 1/18=20,19=15/3(2);
 2/9=110/2;
 99//99;
 2/9=110/2;
 3/5=1,6=6,7=1111,11=9,25=1,30=1,71=1/1,2,3;
 4/5=5,16=3,69=1/1;
 5/5=2,38=5/2;
 8/6=4,9=120000,10=2/1,4;
 9/5=7,15=1/13;
 11/28=-8,29=200,42=3/11;
 10/5=6/2;
 7/12=7/1,2,3,16;
 1/18=20,19=15/3(-9);
 2/9=110/2;
 6/7=2,8=2,9=2,10=2/1;
 99/9=10/99;
 Leave Link    1 at Wed Feb 23 11:56:13 2022, MaxMem= 32614907904 cpu:              12.9 elap:               0.5
 (Enter /sw/contrib/gaussian/gdv/I13p/gdv/l101.exe)
 ----
 2H2O
 ----
 Symbolic Z-matrix:
 Charge =  0 Multiplicity = 1
 O                    -1.24313   3.04112   0.47826 
 H                    -0.28313   3.04136   0.47826 
 H                    -1.56335   3.94613   0.47826 
 H                    -1.23908   2.95491  -1.00648 
 O                    -0.27908   2.95515  -1.00648 
 H                     0.04115   2.05014  -1.00648 
 
 Add virtual bond connecting atoms H4         and O1         Dist= 2.81D+00.
 Add virtual bond connecting atoms O5         and H2         Dist= 2.81D+00.
 ITRead=  0  0  0  0  0  0
 MicOpt= -1 -1 -1 -1 -1 -1
 NAtoms=      6 NQM=        6 NQMF=       0 NMMI=      0 NMMIF=      0
                NMic=       0 NMicF=      0.
                    Isotopes and Nuclear Properties:
 (Nuclear quadrupole moments (NQMom) in fm**2, nuclear magnetic moments (NMagM)
  in nuclear magnetons)

  Atom         1           2           3           4           5           6
 IAtWgt=          16           1           1           1          16           1
 AtmWgt=  15.9949146   1.0078250   1.0078250   1.0078250  15.9949146   1.0078250
 NucSpn=           0           1           1           1           0           1
 AtZEff=  -0.0000000  -0.0000000  -0.0000000  -0.0000000  -0.0000000  -0.0000000
 NQMom=    0.0000000   0.0000000   0.0000000   0.0000000   0.0000000   0.0000000
 NMagM=    0.0000000   2.7928460   2.7928460   2.7928460   0.0000000   2.7928460
 AtZNuc=   8.0000000   1.0000000   1.0000000   1.0000000   8.0000000   1.0000000
 Leave Link  101 at Wed Feb 23 11:56:13 2022, MaxMem= 32614907904 cpu:              10.8 elap:               0.4
 (Enter /sw/contrib/gaussian/gdv/I13p/gdv/l103.exe)

 GradGradGradGradGradGradGradGradGradGradGradGradGradGradGradGradGradGrad
 Berny optimization.
 Initialization pass.
                           ----------------------------
                           !    Initial Parameters    !
                           ! (Angstroms and Degrees)  !
 --------------------------                            --------------------------
 ! Name  Definition              Value          Derivative Info.                !
 --------------------------------------------------------------------------------
 ! R1    R(1,2)                  0.96           estimate D2E/DX2                !
 ! R2    R(1,3)                  0.96           estimate D2E/DX2                !
 ! R3    R(1,4)                  1.4872         estimate D2E/DX2                !
 ! R4    R(2,5)                  1.4872         estimate D2E/DX2                !
 ! R5    R(4,5)                  0.96           estimate D2E/DX2                !
 ! R6    R(5,6)                  0.96           estimate D2E/DX2                !
 ! A1    A(2,1,3)              109.4712         estimate D2E/DX2                !
 ! A2    A(2,1,4)               89.8449         estimate D2E/DX2                !
 ! A3    A(3,1,4)               93.1844         estimate D2E/DX2                !
 ! A4    A(1,2,5)               90.1551         estimate D2E/DX2                !
 ! A5    A(1,4,5)               90.1551         estimate D2E/DX2                !
 ! A6    A(2,5,4)               89.8449         estimate D2E/DX2                !
 ! A7    A(2,5,6)               93.1844         estimate D2E/DX2                !
 ! A8    A(4,5,6)              109.4712         estimate D2E/DX2                !
 ! D1    D(3,1,2,5)            -93.3229         estimate D2E/DX2                !
 ! D2    D(4,1,2,5)              0.0            estimate D2E/DX2                !
 ! D3    D(2,1,4,5)              0.0            estimate D2E/DX2                !
 ! D4    D(3,1,4,5)            109.4935         estimate D2E/DX2                !
 ! D5    D(1,2,5,4)              0.0            estimate D2E/DX2                !
 ! D6    D(1,2,5,6)           -109.4935         estimate D2E/DX2                !
 ! D7    D(1,4,5,2)              0.0            estimate D2E/DX2                !
 ! D8    D(1,4,5,6)             93.3229         estimate D2E/DX2                !
 --------------------------------------------------------------------------------
 Trust Radius=3.00D-01 FncErr=1.00D-07 GrdErr=1.00D-07 EigMax=2.50D+02 EigMin=1.00D-04
 Number of steps in this run=     32 maximum allowed number of steps=    100.
 GradGradGradGradGradGradGradGradGradGradGradGradGradGradGradGradGradGrad

 Leave Link  103 at Wed Feb 23 11:56:13 2022, MaxMem= 32614907904 cpu:               1.6 elap:               0.1
 (Enter /sw/contrib/gaussian/gdv/I13p/gdv/l202.exe)
                          Input orientation:                          
 ---------------------------------------------------------------------
 Center     Atomic      Atomic             Coordinates (Angstroms)
 Number     Number       Type             X           Y           Z
 ---------------------------------------------------------------------
      1          8           0       -1.243127    3.041118    0.478260
      2          1           0       -0.283127    3.041359    0.478260
      3          1           0       -1.563354    3.946134    0.478260
      4          1           0       -1.239080    2.954913   -1.006482
      5          8           0       -0.279080    2.955154   -1.006482
      6          1           0        0.041147    2.050138   -1.006482
 ---------------------------------------------------------------------
                    Distance matrix (angstroms):
                    1          2          3          4          5
     1  O    0.000000
     2  H    0.960000   0.000000
     3  H    0.960000   1.567673   0.000000
     4  H    1.487248   1.767987   1.814423   0.000000
     5  O    1.772353   1.487248   2.199059   0.960000   0.000000
     6  H    2.199059   1.814423   2.893732   1.567673   0.960000
                    6
     6  H    0.000000
 Stoichiometry    H4O2
 Framework group  CI[X(H4O2)]
 Deg. of freedom     6
 Full point group                 CI      NOp   2
 Largest Abelian subgroup         CI      NOp   2
 Largest concise Abelian subgroup CI      NOp   2
                         Standard orientation:                         
 ---------------------------------------------------------------------
 Center     Atomic      Atomic             Coordinates (Angstroms)
 Number     Number       Type             X           Y           Z
 ---------------------------------------------------------------------
      1          8           0       -0.482023    0.042982    0.742371
      2          1           0        0.477977    0.043223    0.742371
      3          1           0       -0.802251    0.947998    0.742371
      4          1           0       -0.477977   -0.043223   -0.742371
      5          8           0        0.482023   -0.042982   -0.742371
      6          1           0        0.802251   -0.947998   -0.742371
 ---------------------------------------------------------------------
 Rotational constants (GHZ):         173.2942860          17.4166536          16.9023499
 Leave Link  202 at Wed Feb 23 11:56:14 2022, MaxMem= 32614907904 cpu:               3.6 elap:               0.2
 (Enter /sw/contrib/gaussian/gdv/I13p/gdv/l301.exe)
 Standard basis: 6-31++G(d,p) (6D, 7F)
 Ernie: Thresh=  0.10000D-02 Tol=  0.10000D-05 Strict=F.
 There are    31 symmetry adapted cartesian basis functions of AG  symmetry.
 There are    31 symmetry adapted cartesian basis functions of AU  symmetry.
 There are    31 symmetry adapted basis functions of AG  symmetry.
 There are    31 symmetry adapted basis functions of AU  symmetry.
    62 basis functions,    96 primitive gaussians,    62 cartesian basis functions
    10 alpha electrons       10 beta electrons
       nuclear repulsion energy        48.0316858329 Hartrees.
 IExCor=    0 DFT=F Ex=HF Corr=None ExCW=0 ScaHFX=  1.000000
 ScaDFX=  1.000000  1.000000  1.000000  1.000000
 IRadAn=      5 IRanWt=     -1 IRanGd=            0 ICorTp=0 IEmpDi=  4
 NAtoms=    6 NActive=    6 NUniq=    3 SFac= 4.00D+00 NAtFMM=   60 NAOKFM=F Big=F
 Integral buffers will be    131072 words long.
 Raffenetti 1 integral format.
 Two-electron integral symmetry is turned on.
 Leave Link  301 at Wed Feb 23 11:56:14 2022, MaxMem= 32614907904 cpu:               2.9 elap:               0.2
 (Enter /sw/contrib/gaussian/gdv/I13p/gdv/l302.exe)
 NPDir=0 NMtPBC=     1 NCelOv=     1 NCel=       1 NClECP=     1 NCelD=      1
         NCelK=      1 NCelE2=     1 NClLst=     1 CellRange=     0.0.
 One-electron integrals computed using PRISM.
 One-electron integral symmetry used in STVInt
 NBasis=    62 RedAO= T EigKep=  2.97D-03  NBF=    31    31
 NBsUse=    62 1.00D-06 EigRej= -1.00D+00 NBFU=    31    31
 Leave Link  302 at Wed Feb 23 11:56:14 2022, MaxMem= 32614907904 cpu:               8.3 elap:               0.4
 (Enter /sw/contrib/gaussian/gdv/I13p/gdv/l303.exe)
 DipDrv:  MaxL=1.
 Leave Link  303 at Wed Feb 23 11:56:15 2022, MaxMem= 32614907904 cpu:               1.6 elap:               0.1
 (Enter /sw/contrib/gaussian/gdv/I13p/gdv/l401.exe)
 ExpMin= 3.60D-02 ExpMax= 5.48D+03 ExpMxC= 8.25D+02 IAcc=3 IRadAn=         5 AccDes= 0.00D+00
 Harris functional with IExCor=  205 and IRadAn=       5 diagonalized for initial guess.
 HarFok:  IExCor=  205 AccDes= 0.00D+00 IRadAn=         5 IDoV= 1 UseB2=F ITyADJ=14
 ICtDFT=  3500011 ScaDFX=  1.000000  1.000000  1.000000  1.000000
 FoFCou: FMM=F IPFlag=           0 FMFlag=      100000 FMFlg1=           0
         NFxFlg=           0 DoJE=T BraDBF=F KetDBF=T FulRan=T
         wScrn=  0.000000 ICntrl=       500 IOpCl=  0 I1Cent=   200000004 NGrid=           0
         NMat0=    1 NMatS0=      1 NMatT0=    0 NMatD0=    1 NMtDS0=    0 NMtDT0=    0
 Petite list used in FoFCou.
 Harris En= -152.126345739462    
 JPrj=0 DoOrth=F DoCkMO=F.
 Initial guess orbital symmetries:
       Occupied  (AU) (AG) (AG) (AU) (AU) (AG) (AU) (AG) (AG) (AU)
       Virtual   (AG) (AU) (AU) (AG) (AU) (AG) (AG) (AU) (AU) (AG)
                 (AG) (AG) (AU) (AU) (AU) (AG) (AG) (AU) (AU) (AU)
                 (AG) (AG) (AU) (AG) (AU) (AG) (AG) (AU) (AU) (AG)
                 (AU) (AG) (AG) (AG) (AG) (AU) (AU) (AU) (AG) (AU)
                 (AU) (AG) (AU) (AG) (AU) (AG) (AG) (AU) (AU) (AG)
                 (AG) (AU)
 The electronic state of the initial guess is 1-AG.
 Leave Link  401 at Wed Feb 23 11:56:15 2022, MaxMem= 32614907904 cpu:               8.8 elap:               0.5
 (Enter /sw/contrib/gaussian/gdv/I13p/gdv/l502.exe)
 Keep R1 ints in memory in symmetry-blocked form, NReq=7714968.
 FoFCou: FMM=F IPFlag=           0 FMFlag=           0 FMFlg1=           0
         NFxFlg=           0 DoJE=F BraDBF=F KetDBF=F FulRan=T
         wScrn=  0.000000 ICntrl=       600 IOpCl=  0 I1Cent=           0 NGrid=           0
         NMat0=    1 NMatS0=   1953 NMatT0=    0 NMatD0=    1 NMtDS0=    0 NMtDT0=    0
 Petite list used in FoFCou.
 Closed shell SCF:
 Using DIIS extrapolation, IDIIS=  1040.
 NGot= 32614907904 LenX= 32613938417 LenY= 32613934132
 Requested convergence on RMS density matrix=1.00D-08 within 128 cycles.
 Requested convergence on MAX density matrix=1.00D-06.
 Requested convergence on             energy=1.00D-06.
 No special actions if energy rises.

 Cycle   1  Pass 1  IDiag  1:
 E= -151.729090271691    
 DIIS: error= 5.01D-02 at cycle   1 NSaved=   1.
 NSaved= 1 IEnMin= 1 EnMin= -151.729090271691     IErMin= 1 ErrMin= 5.01D-02
 ErrMax= 5.01D-02  0.00D+00 EMaxC= 1.00D-01 BMatC= 2.85D-01 BMatP= 2.85D-01
 IDIUse=3 WtCom= 4.99D-01 WtEn= 5.01D-01
 Coeff-Com:  0.100D+01
 Coeff-En:   0.100D+01
 Coeff:      0.100D+01
 Gap=     0.300 Goal=   None    Shift=    0.000
 GapD=    0.300 DampG=1.000 DampE=0.500 DampFc=0.5000 IDamp=-1.
 Damping current iteration by 5.00D-01
 RMSDP=1.06D-02 MaxDP=1.24D-01              OVMax= 1.50D-01

 Cycle   2  Pass 1  IDiag  1:
 E= -151.819908264446     Delta-E=       -0.090817992755 Rises=F Damp=T
 DIIS: error= 2.27D-02 at cycle   2 NSaved=   2.
 NSaved= 2 IEnMin= 2 EnMin= -151.819908264446     IErMin= 2 ErrMin= 2.27D-02
 ErrMax= 2.27D-02  0.00D+00 EMaxC= 1.00D-01 BMatC= 3.29D-02 BMatP= 2.85D-01
 IDIUse=3 WtCom= 7.73D-01 WtEn= 2.27D-01
 Coeff-Com: -0.303D+00 0.130D+01
 Coeff-En:   0.000D+00 0.100D+01
 Coeff:     -0.234D+00 0.123D+01
 Gap=     0.415 Goal=   None    Shift=    0.000
 RMSDP=2.01D-03 MaxDP=2.22D-02 DE=-9.08D-02 OVMax= 7.29D-02

 Cycle   3  Pass 1  IDiag  1:
 E= -151.897786010246     Delta-E=       -0.077877745800 Rises=F Damp=F
 DIIS: error= 1.48D-03 at cycle   3 NSaved=   3.
 NSaved= 3 IEnMin= 3 EnMin= -151.897786010246     IErMin= 3 ErrMin= 1.48D-03
 ErrMax= 1.48D-03  0.00D+00 EMaxC= 1.00D-01 BMatC= 3.23D-04 BMatP= 3.29D-02
 IDIUse=3 WtCom= 9.85D-01 WtEn= 1.48D-02
 Coeff-Com: -0.185D-01-0.191D-01 0.104D+01
 Coeff-En:   0.000D+00 0.000D+00 0.100D+01
 Coeff:     -0.182D-01-0.188D-01 0.104D+01
 Gap=     0.415 Goal=   None    Shift=    0.000
 RMSDP=4.93D-04 MaxDP=4.63D-03 DE=-7.79D-02 OVMax= 5.77D-03

 Cycle   4  Pass 1  IDiag  1:
 E= -151.898192455146     Delta-E=       -0.000406444900 Rises=F Damp=F
 DIIS: error= 5.25D-04 at cycle   4 NSaved=   4.
 NSaved= 4 IEnMin= 4 EnMin= -151.898192455146     IErMin= 4 ErrMin= 5.25D-04
 ErrMax= 5.25D-04  0.00D+00 EMaxC= 1.00D-01 BMatC= 1.99D-05 BMatP= 3.23D-04
 IDIUse=3 WtCom= 9.95D-01 WtEn= 5.25D-03
 Coeff-Com:  0.633D-02-0.532D-02-0.242D+00 0.124D+01
 Coeff-En:   0.000D+00 0.000D+00 0.000D+00 0.100D+01
 Coeff:      0.630D-02-0.530D-02-0.241D+00 0.124D+01
 Gap=     0.417 Goal=   None    Shift=    0.000
 RMSDP=2.77D-04 MaxDP=2.76D-03 DE=-4.06D-04 OVMax= 3.51D-03

 Cycle   5  Pass 1  IDiag  1:
 E= -151.898246975403     Delta-E=       -0.000054520257 Rises=F Damp=F
 DIIS: error= 1.84D-04 at cycle   5 NSaved=   5.
 NSaved= 5 IEnMin= 5 EnMin= -151.898246975403     IErMin= 5 ErrMin= 1.84D-04
 ErrMax= 1.84D-04  0.00D+00 EMaxC= 1.00D-01 BMatC= 1.98D-06 BMatP= 1.99D-05
 IDIUse=3 WtCom= 9.98D-01 WtEn= 1.84D-03
 Coeff-Com:  0.441D-03 0.275D-02-0.610D-01-0.149D+00 0.121D+01
 Coeff-En:   0.000D+00 0.000D+00 0.000D+00 0.000D+00 0.100D+01
 Coeff:      0.440D-03 0.275D-02-0.608D-01-0.149D+00 0.121D+01
 Gap=     0.417 Goal=   None    Shift=    0.000
 RMSDP=9.83D-05 MaxDP=8.92D-04 DE=-5.45D-05 OVMax= 1.48D-03

 Cycle   6  Pass 1  IDiag  1:
 E= -151.898253717141     Delta-E=       -0.000006741738 Rises=F Damp=F
 DIIS: error= 5.79D-05 at cycle   6 NSaved=   6.
 NSaved= 6 IEnMin= 6 EnMin= -151.898253717141     IErMin= 6 ErrMin= 5.79D-05
 ErrMax= 5.79D-05  0.00D+00 EMaxC= 1.00D-01 BMatC= 1.17D-07 BMatP= 1.98D-06
 IDIUse=1 WtCom= 1.00D+00 WtEn= 0.00D+00
 Coeff-Com: -0.626D-03-0.312D-03 0.349D-01-0.360D-01-0.384D+00 0.139D+01
 Coeff:     -0.626D-03-0.312D-03 0.349D-01-0.360D-01-0.384D+00 0.139D+01
 Gap=     0.417 Goal=   None    Shift=    0.000
 RMSDP=2.53D-05 MaxDP=2.18D-04 DE=-6.74D-06 OVMax= 4.88D-04

 Cycle   7  Pass 1  IDiag  1:
 E= -151.898254169012     Delta-E=       -0.000000451872 Rises=F Damp=F
 DIIS: error= 1.11D-05 at cycle   7 NSaved=   7.
 NSaved= 7 IEnMin= 7 EnMin= -151.898254169012     IErMin= 7 ErrMin= 1.11D-05
 ErrMax= 1.11D-05  0.00D+00 EMaxC= 1.00D-01 BMatC= 4.30D-09 BMatP= 1.17D-07
 IDIUse=1 WtCom= 1.00D+00 WtEn= 0.00D+00
 Coeff-Com:  0.144D-03 0.103D-03-0.968D-02 0.125D-01 0.111D+00-0.515D+00
 Coeff-Com:  0.140D+01
 Coeff:      0.144D-03 0.103D-03-0.968D-02 0.125D-01 0.111D+00-0.515D+00
 Coeff:      0.140D+01
 Gap=     0.417 Goal=   None    Shift=    0.000
 RMSDP=3.55D-06 MaxDP=3.16D-05 DE=-4.52D-07 OVMax= 9.16D-05

 Cycle   8  Pass 1  IDiag  1:
 E= -151.898254183953     Delta-E=       -0.000000014941 Rises=F Damp=F
 DIIS: error= 2.60D-06 at cycle   8 NSaved=   8.
 NSaved= 8 IEnMin= 8 EnMin= -151.898254183953     IErMin= 8 ErrMin= 2.60D-06
 ErrMax= 2.60D-06  0.00D+00 EMaxC= 1.00D-01 BMatC= 2.11D-10 BMatP= 4.30D-09
 IDIUse=1 WtCom= 1.00D+00 WtEn= 0.00D+00
 Coeff-Com: -0.263D-05 0.373D-05 0.143D-03-0.879D-03-0.596D-03 0.295D-01
 Coeff-Com: -0.315D+00 0.129D+01
 Coeff:     -0.263D-05 0.373D-05 0.143D-03-0.879D-03-0.596D-03 0.295D-01
 Coeff:     -0.315D+00 0.129D+01
 Gap=     0.417 Goal=   None    Shift=    0.000
 RMSDP=8.50D-07 MaxDP=9.41D-06 DE=-1.49D-08 OVMax= 2.08D-05

 Cycle   9  Pass 1  IDiag  1:
 E= -151.898254184696     Delta-E=       -0.000000000742 Rises=F Damp=F
 DIIS: error= 4.65D-07 at cycle   9 NSaved=   9.
 NSaved= 9 IEnMin= 9 EnMin= -151.898254184696     IErMin= 9 ErrMin= 4.65D-07
 ErrMax= 4.65D-07  0.00D+00 EMaxC= 1.00D-01 BMatC= 8.95D-12 BMatP= 2.11D-10
 IDIUse=1 WtCom= 1.00D+00 WtEn= 0.00D+00
 Coeff-Com: -0.580D-05-0.721D-05 0.444D-03-0.397D-03-0.531D-02 0.168D-01
 Coeff-Com:  0.262D-01-0.384D+00 0.135D+01
 Coeff:     -0.580D-05-0.721D-05 0.444D-03-0.397D-03-0.531D-02 0.168D-01
 Coeff:      0.262D-01-0.384D+00 0.135D+01
 Gap=     0.417 Goal=   None    Shift=    0.000
 RMSDP=2.13D-07 MaxDP=1.84D-06 DE=-7.42D-10 OVMax= 4.36D-06

 Cycle  10  Pass 1  IDiag  1:
 E= -151.898254184728     Delta-E=       -0.000000000032 Rises=F Damp=F
 DIIS: error= 7.61D-08 at cycle  10 NSaved=  10.
 NSaved=10 IEnMin=10 EnMin= -151.898254184728     IErMin=10 ErrMin= 7.61D-08
 ErrMax= 7.61D-08  0.00D+00 EMaxC= 1.00D-01 BMatC= 3.77D-13 BMatP= 8.95D-12
 IDIUse=1 WtCom= 1.00D+00 WtEn= 0.00D+00
 Coeff-Com:  0.185D-05 0.251D-05-0.148D-03 0.132D-03 0.185D-02-0.662D-02
 Coeff-Com:  0.663D-03 0.924D-01-0.476D+00 0.139D+01
 Coeff:      0.185D-05 0.251D-05-0.148D-03 0.132D-03 0.185D-02-0.662D-02
 Coeff:      0.663D-03 0.924D-01-0.476D+00 0.139D+01
 Gap=     0.417 Goal=   None    Shift=    0.000
 RMSDP=3.37D-08 MaxDP=2.78D-07 DE=-3.18D-11 OVMax= 8.39D-07

 Cycle  11  Pass 1  IDiag  1:
 E= -151.898254184729     Delta-E=       -0.000000000001 Rises=F Damp=F
 DIIS: error= 1.81D-08 at cycle  11 NSaved=  11.
 NSaved=11 IEnMin=11 EnMin= -151.898254184729     IErMin=11 ErrMin= 1.81D-08
 ErrMax= 1.81D-08  0.00D+00 EMaxC= 1.00D-01 BMatC= 2.25D-14 BMatP= 3.77D-13
 IDIUse=1 WtCom= 1.00D+00 WtEn= 0.00D+00
 Coeff-Com: -0.473D-06-0.336D-06 0.295D-04-0.264D-04-0.376D-03 0.149D-02
 Coeff-Com: -0.196D-02-0.107D-01 0.914D-01-0.486D+00 0.141D+01
 Coeff:     -0.473D-06-0.336D-06 0.295D-04-0.264D-04-0.376D-03 0.149D-02
 Coeff:     -0.196D-02-0.107D-01 0.914D-01-0.486D+00 0.141D+01
 Gap=     0.417 Goal=   None    Shift=    0.000
 RMSDP=8.00D-09 MaxDP=9.58D-08 DE=-1.39D-12 OVMax= 1.89D-07

 SCF Done:  E(RHF) =  -151.898254185     A.U. after   11 cycles
            NFock= 11  Conv=0.80D-08     -V/T= 1.9972
 KE= 1.523239995255D+02 PE=-4.574737331194D+02 EE= 1.052197935762D+02
 Leave Link  502 at Wed Feb 23 11:56:15 2022, MaxMem= 32614907904 cpu:               7.1 elap:               0.3
 (Enter /sw/contrib/gaussian/gdv/I13p/gdv/l801.exe)
 Windowed orbitals will be sorted by symmetry type.
 ExpMin= 3.60D-02 ExpMax= 5.48D+03 ExpMxC= 8.25D+02 IAcc=3 IRadAn=         5 AccDes= 0.00D+00
 HarFok:  IExCor=  205 AccDes= 0.00D+00 IRadAn=         5 IDoV=-2 UseB2=F ITyADJ=14
 ICtDFT= 12500011 ScaDFX=  1.000000  1.000000  1.000000  1.000000
 Largest valence mixing into a core orbital is  8.52D-05
 Largest core mixing into a valence orbital is  1.66D-05
 Range of M.O.s used for correlation:     3    62
 NBasis=    62 NAE=    10 NBE=    10 NFC=     2 NFV=     0
 NROrb=     60 NOA=     8 NOB=     8 NVA=    52 NVB=    52
 Leave Link  801 at Wed Feb 23 11:56:16 2022, MaxMem= 32614907904 cpu:               2.9 elap:               0.2
 (Enter /sw/contrib/gaussian/gdv/I13p/gdv/l804.exe)
 Closed-shell transformation, MDV= 32614907904 ITran=4 ISComp=2.
 Unit  1 TFree=        958775 TCopy=        237728.
 Semi-Direct transformation.
 ModeAB=           4 MOrb=             8 LenV=   32614672737
 LASXX=       386990 LTotXX=      386990 LenRXX=      793142
 LTotAB=      406152 MaxLAS=      513120 LenRXY=           0
 NonZer=     1180132 LenScr=     2097152 LnRSAI=      513120
 LnScr1=     1048576 LExtra=           0 Total=      4451990
 MaxDsk=          -1 SrtSym=           T ITran=            4
 DoSDTr:  NPSUse= 28
 JobTyp=0 Pass  1:  I=   1 to   8.
 (rs|ai) integrals will be sorted in core.
 Complete sort for first half transformation.
 First half transformation complete.
 Complete sort for second half transformation.
 Second half transformation complete.
 Spin components of T(2) and E(2):
     alpha-alpha T2 =       0.1482490801D-01 E2=     -0.5463747201D-01
     alpha-beta  T2 =       0.8143765105D-01 E2=     -0.3077743321D+00
     beta-beta   T2 =       0.1482490801D-01 E2=     -0.5463747201D-01
 ANorm=    0.1054081338D+01
 E2 =    -0.4170492762D+00 EUMP2 =    -0.15231530346088D+03
 Leave Link  804 at Wed Feb 23 11:56:16 2022, MaxMem= 32614907904 cpu:               6.4 elap:               0.3
 (Enter /sw/contrib/gaussian/gdv/I13p/gdv/l913.exe)
 CIDS:  MDV= 32614907904.
 Frozen-core window:  NFC=   2 NFV=   0.
 IFCWin=0 IBDFC=1 NFBD=     0     0 NFCmp=     0     0 NFFFC=     0     0
 Using DD3R+UMP44R for 1st iteration.
 Using DD4RQ for 2nd and later iterations.
 Keep R2 and R3 ints in memory in symmetry-blocked form, NReq=7720179.
 FoFCou: FMM=F IPFlag=           0 FMFlag=           0 FMFlg1=           0
         NFxFlg=           0 DoJE=F BraDBF=F KetDBF=F FulRan=T
         wScrn=  0.000000 ICntrl=       600 IOpCl=  0 I1Cent=           0 NGrid=           0
         NMat0=    1 NMatS0=   1953 NMatT0=    0 NMatD0=    1 NMtDS0=    0 NMtDT0=    0
 Petite list used in FoFCou.
 CIDS: In Core Option IDoMem=           1.
 Coupled Cluster theory with single and double substitutions
 ===========================================================
 Iterations=  50 Convergence= 0.100D-07
 Produce multiple copies of IABC intergrals
 Iteration Nr.   1
 **********************
 DD1Dir will call FoFMem   1 times, MxPair=        72
 NAB=    36 NAA=     0 NBB=     0.
 MP4(R+Q)=  0.41840600D-02
 Maximum subspace dimension=  5
 A-vector RMS=  4.8125709D-03 Max=  1.9682324D-02 conv= 1.00D-06.
 RLE energy=       -0.4191265408
 E3=       -0.65100458D-02        EUMP3=      -0.15232181351D+03
 E4(DQ)=   -0.31989686D-02        UMP4(DQ)=   -0.15232501248D+03
 E4(SDQ)=  -0.71466891D-02        UMP4(SDQ)=  -0.15232896020D+03
 VARIATIONAL ENERGIES WITH THE FIRST-ORDER WAVEFUNCTION:
 DE(Corr)= -0.41911641     E(Corr)=     -152.31737059    
 NORM(A)=   0.10561834D+01
 Iteration Nr.   2
 **********************
 DD1Dir will call FoFMem   1 times, MxPair=        72
 NAB=    36 NAA=     0 NBB=     0.
 A-vector RMS=  6.1275043D-04 Max=  1.8758567D-03 conv= 1.00D-06.
 RLE energy=       -0.4293241042
 DE(Corr)= -0.42822544     E(CORR)=     -152.32647963     Delta=-9.11D-03
 NORM(A)=   0.10604476D+01
 Iteration Nr.   3
 **********************
 DD1Dir will call FoFMem   1 times, MxPair=        72
 NAB=    36 NAA=     0 NBB=     0.
 A-vector RMS=  1.0164706D-03 Max=  6.7004819D-03 conv= 1.00D-06.
 RLE energy=       -0.4302240964
 DE(Corr)= -0.42920582     E(CORR)=     -152.32746001     Delta=-9.80D-04
 NORM(A)=   0.10620263D+01
 Iteration Nr.   4
 **********************
 DD1Dir will call FoFMem   1 times, MxPair=        72
 NAB=    36 NAA=     0 NBB=     0.
 A-vector RMS=  1.7651899D-04 Max=  1.0342396D-03 conv= 1.00D-06.
 RLE energy=       -0.4303296729
 DE(Corr)= -0.43022586     E(CORR)=     -152.32848004     Delta=-1.02D-03
 NORM(A)=   0.10625004D+01
 Iteration Nr.   5
 **********************
 DD1Dir will call FoFMem   1 times, MxPair=        72
 NAB=    36 NAA=     0 NBB=     0.
 A-vector RMS=  1.8221597D-04 Max=  1.4805900D-03 conv= 1.00D-06.
 RLE energy=       -0.4303532160
 DE(Corr)= -0.43032921     E(CORR)=     -152.32858340     Delta=-1.03D-04
 NORM(A)=   0.10627415D+01
 Iteration Nr.   6
 **********************
 DD1Dir will call FoFMem   1 times, MxPair=        72
 NAB=    36 NAA=     0 NBB=     0.
 A-vector RMS=  4.4301632D-05 Max=  2.7398570D-04 conv= 1.00D-06.
 RLE energy=       -0.4303341760
 DE(Corr)= -0.43034504     E(CORR)=     -152.32859923     Delta=-1.58D-05
 NORM(A)=   0.10628156D+01
 Iteration Nr.   7
 **********************
 DD1Dir will call FoFMem   1 times, MxPair=        72
 NAB=    36 NAA=     0 NBB=     0.
 A-vector RMS=  2.0696908D-05 Max=  1.2521140D-04 conv= 1.00D-06.
 RLE energy=       -0.4303384185
 DE(Corr)= -0.43034724     E(CORR)=     -152.32860142     Delta=-2.19D-06
 NORM(A)=   0.10628309D+01
 Iteration Nr.   8
 **********************
 DD1Dir will call FoFMem   1 times, MxPair=        72
 NAB=    36 NAA=     0 NBB=     0.
 A-vector RMS=  6.7509866D-06 Max=  3.1080978D-05 conv= 1.00D-06.
 RLE energy=       -0.4303428266
 DE(Corr)= -0.43034398     E(CORR)=     -152.32859817     Delta= 3.25D-06
 NORM(A)=   0.10628367D+01
 Iteration Nr.   9
 **********************
 DD1Dir will call FoFMem   1 times, MxPair=        72
 NAB=    36 NAA=     0 NBB=     0.
 A-vector RMS=  3.1758822D-06 Max=  2.0155456D-05 conv= 1.00D-06.
 RLE energy=       -0.4303445561
 DE(Corr)= -0.43034496     E(CORR)=     -152.32859914     Delta=-9.73D-07
 NORM(A)=   0.10628371D+01
 Iteration Nr.  10
 **********************
 DD1Dir will call FoFMem   1 times, MxPair=        72
 NAB=    36 NAA=     0 NBB=     0.
 A-vector RMS=  1.5077930D-06 Max=  9.5794358D-06 conv= 1.00D-06.
 RLE energy=       -0.4303459079
 DE(Corr)= -0.43034556     E(CORR)=     -152.32859974     Delta=-6.00D-07
 NORM(A)=   0.10628379D+01
 Iteration Nr.  11
 **********************
 DD1Dir will call FoFMem   1 times, MxPair=        72
 NAB=    36 NAA=     0 NBB=     0.
 A-vector RMS=  6.2237575D-07 Max=  3.0648715D-06 conv= 1.00D-06.
 RLE energy=       -0.4303461489
 DE(Corr)= -0.43034597     E(CORR)=     -152.32860016     Delta=-4.15D-07
 NORM(A)=   0.10628383D+01
 Iteration Nr.  12
 **********************
 DD1Dir will call FoFMem   1 times, MxPair=        72
 NAB=    36 NAA=     0 NBB=     0.
 A-vector RMS=  3.3661611D-07 Max=  2.6635684D-06 conv= 1.00D-06.
 RLE energy=       -0.4303462882
 DE(Corr)= -0.43034621     E(CORR)=     -152.32860040     Delta=-2.40D-07
 NORM(A)=   0.10628386D+01
 Iteration Nr.  13
 **********************
 DD1Dir will call FoFMem   1 times, MxPair=        72
 NAB=    36 NAA=     0 NBB=     0.
 A-vector RMS=  1.6926537D-07 Max=  9.5126805D-07 conv= 1.00D-06.
 RLE energy=       -0.4303463064
 DE(Corr)= -0.43034628     E(CORR)=     -152.32860046     Delta=-6.61D-08
 NORM(A)=   0.10628388D+01
 Iteration Nr.  14
 **********************
 DD1Dir will call FoFMem   1 times, MxPair=        72
 NAB=    36 NAA=     0 NBB=     0.
 A-vector RMS=  9.4312413D-08 Max=  6.0735061D-07 conv= 1.00D-06.
 RLE energy=       -0.4303463108
 DE(Corr)= -0.43034631     E(CORR)=     -152.32860049     Delta=-2.84D-08
 NORM(A)=   0.10628389D+01
 Iteration Nr.  15
 **********************
 DD1Dir will call FoFMem   1 times, MxPair=        72
 NAB=    36 NAA=     0 NBB=     0.
 A-vector RMS=  4.3827563D-08 Max=  3.0774911D-07 conv= 1.00D-06.
 RLE energy=       -0.4303463169
 DE(Corr)= -0.43034632     E(CORR)=     -152.32860050     Delta=-9.33D-09
 NORM(A)=   0.10628390D+01
 CI/CC converged in   15 iterations to DelEn=-9.33D-09 Conv= 1.00D-08 ErrA1= 4.38D-08 Conv= 1.00D-06
 Wavefunction amplitudes converged. E(Corr)=     -152.32860050    
 Largest amplitude= 3.17D-02

 Z-amplitude iterations

 Iteration Nr.   1
 **********************
 DD1Dir will call FoFMem   1 times, MxPair=        72
 NAB=    36 NAA=     0 NBB=     0.
 A-vector RMS=  2.1656466D-03 Max=  7.5962741D-03 conv= 1.00D-06.
 RLE energy=       -0.4303430069
 DE(Z)= -0.42416062     E(Z)=     -152.32241480     Delta= 6.19D-03
 NORM(A)=   0.10628368D+01
 Iteration Nr.   2
 **********************
 DD1Dir will call FoFMem   1 times, MxPair=        72
 NAB=    36 NAA=     0 NBB=     0.
 A-vector RMS=  2.1644112D-03 Max=  7.5922050D-03 conv= 1.00D-06.
 RLE energy=       -0.4303426722
 DE(Z)= -0.42415958     E(Z)=     -152.32241377     Delta= 1.04D-06
 NORM(A)=   0.10628367D+01
 Iteration Nr.   3
 **********************
 DD1Dir will call FoFMem   1 times, MxPair=        72
 NAB=    36 NAA=     0 NBB=     0.
 A-vector RMS=  2.1647413D-03 Max=  7.5932487D-03 conv= 1.00D-06.
 RLE energy=       -0.4303398025
 DE(Z)= -0.42415983     E(Z)=     -152.32241401     Delta=-2.45D-07
 NORM(A)=   0.10628346D+01
 Iteration Nr.   4
 **********************
 DD1Dir will call FoFMem   1 times, MxPair=        72
 NAB=    36 NAA=     0 NBB=     0.
 A-vector RMS=  2.1638612D-03 Max=  7.5902349D-03 conv= 1.00D-06.
 RLE energy=       -0.4303339779
 DE(Z)= -0.42415908     E(Z)=     -152.32241326     Delta= 7.50D-07
 NORM(A)=   0.10628306D+01
 Iteration Nr.   5
 **********************
 DD1Dir will call FoFMem   1 times, MxPair=        72
 NAB=    36 NAA=     0 NBB=     0.
 A-vector RMS=  2.1622742D-03 Max=  7.5845451D-03 conv= 1.00D-06.
 RLE energy=       -0.4222910192
 DE(Z)= -0.42415770     E(Z)=     -152.32241189     Delta= 1.37D-06
 NORM(A)=   0.10580602D+01
 Iteration Nr.   6
 **********************
 DD1Dir will call FoFMem   1 times, MxPair=        72
 NAB=    36 NAA=     0 NBB=     0.
 A-vector RMS=  1.1516362D-05 Max=  5.8641364D-05 conv= 1.00D-06.
 RLE energy=       -0.4222961196
 DE(Z)= -0.42229569     E(Z)=     -152.32054987     Delta= 1.86D-03
 NORM(A)=   0.10580598D+01
 Iteration Nr.   7
 **********************
 DD1Dir will call FoFMem   1 times, MxPair=        72
 NAB=    36 NAA=     0 NBB=     0.
 A-vector RMS=  8.4648644D-06 Max=  5.2485462D-05 conv= 1.00D-06.
 RLE energy=       -0.4222938518
 DE(Z)= -0.42229529     E(Z)=     -152.32054948     Delta= 3.92D-07
 NORM(A)=   0.10580534D+01
 Iteration Nr.   8
 **********************
 DD1Dir will call FoFMem   1 times, MxPair=        72
 NAB=    36 NAA=     0 NBB=     0.
 A-vector RMS=  3.7028993D-06 Max=  2.2227433D-05 conv= 1.00D-06.
 RLE energy=       -0.4222949071
 DE(Z)= -0.42229611     E(Z)=     -152.32055029     Delta=-8.11D-07
 NORM(A)=   0.10580486D+01
 Iteration Nr.   9
 **********************
 DD1Dir will call FoFMem   1 times, MxPair=        72
 NAB=    36 NAA=     0 NBB=     0.
 A-vector RMS=  9.8535464D-07 Max=  4.3958272D-06 conv= 1.00D-06.
 RLE energy=       -0.4222948335
 DE(Z)= -0.42229506     E(Z)=     -152.32054924     Delta= 1.05D-06
 NORM(A)=   0.10580474D+01
 Iteration Nr.  10
 **********************
 DD1Dir will call FoFMem   1 times, MxPair=        72
 NAB=    36 NAA=     0 NBB=     0.
 A-vector RMS=  5.1003269D-07 Max=  3.3869172D-06 conv= 1.00D-06.
 RLE energy=       -0.4222948575
 DE(Z)= -0.42229499     E(Z)=     -152.32054917     Delta= 6.93D-08
 NORM(A)=   0.10580471D+01
 Iteration Nr.  11
 **********************
 DD1Dir will call FoFMem   1 times, MxPair=        72
 NAB=    36 NAA=     0 NBB=     0.
 A-vector RMS=  2.1199471D-07 Max=  1.2215123D-06 conv= 1.00D-06.
 RLE energy=       -0.4222948183
 DE(Z)= -0.42229484     E(Z)=     -152.32054903     Delta= 1.45D-07
 NORM(A)=   0.10580471D+01
 Iteration Nr.  12
 **********************
 DD1Dir will call FoFMem   1 times, MxPair=        72
 NAB=    36 NAA=     0 NBB=     0.
 A-vector RMS=  1.1150860D-07 Max=  6.3005345D-07 conv= 1.00D-06.
 RLE energy=       -0.4222949089
 DE(Z)= -0.42229488     E(Z)=     -152.32054906     Delta=-3.25D-08
 NORM(A)=   0.10580472D+01
 Iteration Nr.  13
 **********************
 DD1Dir will call FoFMem   1 times, MxPair=        72
 NAB=    36 NAA=     0 NBB=     0.
 A-vector RMS=  3.7841228D-08 Max=  2.0653419D-07 conv= 1.00D-06.
 RLE energy=       -0.4222949042
 DE(Z)= -0.42229489     E(Z)=     -152.32054907     Delta=-1.14D-08
 NORM(A)=   0.10580473D+01
 Iteration Nr.  14
 **********************
 DD1Dir will call FoFMem   1 times, MxPair=        72
 NAB=    36 NAA=     0 NBB=     0.
 A-vector RMS=  1.2239645D-08 Max=  8.6585403D-08 conv= 1.00D-06.
 RLE energy=       -0.4222949051
 DE(Z)= -0.42229490     E(Z)=     -152.32054909     Delta=-1.46D-08
 NORM(A)=   0.10580473D+01
 Iteration Nr.  15
 **********************
 DD1Dir will call FoFMem   1 times, MxPair=        72
 NAB=    36 NAA=     0 NBB=     0.
 A-vector RMS=  7.7073041D-09 Max=  5.1698590D-08 conv= 1.00D-06.
 RLE energy=       -0.4222949062
 DE(Z)= -0.42229490     E(Z)=     -152.32054909     Delta=-1.24D-09
 NORM(A)=   0.10580473D+01
 CI/CC converged in   15 iterations to DelEn=-1.24D-09 Conv= 1.00D-08 ErrA1= 7.71D-09 Conv= 1.00D-06
 Z-amplitudes converged.
 Discarding MO integrals.
 Leave Link  913 at Wed Feb 23 11:56:19 2022, MaxMem= 32614907904 cpu:              85.0 elap:               3.1
 (Enter /sw/contrib/gaussian/gdv/I13p/gdv/l1111.exe)
 Unit  1 TFree=        899465 TCopy=        315920.
 Selected functions:
 Compute CCSD 2PDM.
 Form Post-SCF non-separable gradient here.
 IO1PDM=    0 IOW=    0 IO2PDM=    0.
 MDV=   32614907904.
 Frozen-core window:  NFC=   2 NFV=   0.
 Leave Link 1111 at Wed Feb 23 11:56:31 2022, MaxMem= 32614907904 cpu:             313.9 elap:              11.6
 (Enter /sw/contrib/gaussian/gdv/I13p/gdv/l1002.exe)
 Minotr:  Closed shell wavefunction.
          Computing CCSD/QCISD derivatives.
          Using Z-Vector for PSCF gradient.
          Skipping F1 and S1 gradient terms here.
          IDoAtm=111111
          Frozen-core window.
          Direct CPHF calculation.
          Differentiating once with respect to electric field.
                with respect to dipole field.
          Differentiating once with respect to nuclear coordinates.
          Using symmetry in CPHF.
          Requested convergence is 1.0D-10 RMS, and 1.0D-09 maximum.
          NewPWx=F KeepS1=T KeepF1=T KeepIn=T MapXYZ=F SortEE=F KeepMc=T.
 Keep R1 ints in memory in symmetry-blocked form, NReq=7716158.
 FoFCou: FMM=F IPFlag=           0 FMFlag=           0 FMFlg1=           0
         NFxFlg=           0 DoJE=F BraDBF=F KetDBF=F FulRan=T
         wScrn=  0.000000 ICntrl=       600 IOpCl=  0 I1Cent=           0 NGrid=           0
         NMat0=    1 NMatS0=   1953 NMatT0=    0 NMatD0=    1 NMtDS0=    0 NMtDT0=    0
 Petite list used in FoFCou.
          MDV=   32614907904 using IRadAn=       5.
          Solving linear equations separately, MaxMat=       0.
          There are     1 degrees of freedom in the 1st order CPHF.  IDoFFX=0 NUNeed=     1.
 LinEq1:  Iter=  0 NonCon=     1 RMS=5.62D-03 Max=5.52D-02 NDo=     1
 AX will form     1 AO Fock derivatives at one time.
 LinEq1:  Iter=  1 NonCon=     1 RMS=1.43D-03 Max=8.37D-03 NDo=     1
 LinEq1:  Iter=  2 NonCon=     1 RMS=5.02D-04 Max=3.77D-03 NDo=     1
 LinEq1:  Iter=  3 NonCon=     1 RMS=6.19D-05 Max=4.07D-04 NDo=     1
 LinEq1:  Iter=  4 NonCon=     1 RMS=9.06D-06 Max=5.07D-05 NDo=     1
 LinEq1:  Iter=  5 NonCon=     1 RMS=1.73D-06 Max=1.18D-05 NDo=     1
 LinEq1:  Iter=  6 NonCon=     1 RMS=3.68D-07 Max=2.40D-06 NDo=     1
 LinEq1:  Iter=  7 NonCon=     1 RMS=5.35D-08 Max=3.76D-07 NDo=     1
 LinEq1:  Iter=  8 NonCon=     1 RMS=1.07D-08 Max=8.45D-08 NDo=     1
 LinEq1:  Iter=  9 NonCon=     1 RMS=1.87D-09 Max=1.21D-08 NDo=     1
 LinEq1:  Iter= 10 NonCon=     1 RMS=2.37D-10 Max=2.16D-09 NDo=     1
 LinEq1:  Iter= 11 NonCon=     0 RMS=2.87D-11 Max=1.64D-10 NDo=     1
 Linear equations converged to 1.000D-10 1.000D-09 after    11 iterations.
 End of Minotr F.D. properties file   721 does not exist.
 End of Minotr F.D. properties file   722 does not exist.
 End of Minotr F.D. properties file   788 does not exist.
 Leave Link 1002 at Wed Feb 23 11:56:32 2022, MaxMem= 32614907904 cpu:              13.2 elap:               0.6
 (Enter /sw/contrib/gaussian/gdv/I13p/gdv/l601.exe)
 Copying SCF densities to generalized density rwf, IOpCl= 0 IROHF=0.

 **********************************************************************

            Population analysis using the SCF Density.

 **********************************************************************

 Orbital symmetries:
       Occupied  (AU) (AG) (AG) (AU) (AU) (AG) (AU) (AG) (AG) (AU)
       Virtual   (AG) (AU) (AU) (AG) (AU) (AG) (AG) (AG) (AU) (AG)
                 (AU) (AU) (AG) (AU) (AU) (AG) (AG) (AU) (AU) (AU)
                 (AG) (AU) (AG) (AG) (AU) (AG) (AG) (AU) (AU) (AG)
                 (AU) (AG) (AG) (AG) (AG) (AU) (AU) (AU) (AG) (AU)
                 (AG) (AU) (AU) (AU) (AG) (AG) (AG) (AU) (AU) (AG)
                 (AG) (AU)
 The electronic state is 1-AG.
 Alpha  occ. eigenvalues --  -20.53730 -20.53724  -1.43461  -1.28384  -0.75712
 Alpha  occ. eigenvalues --   -0.73906  -0.62615  -0.55727  -0.50773  -0.37475
 Alpha virt. eigenvalues --    0.04232   0.06561   0.07739   0.10413   0.23072
 Alpha virt. eigenvalues --    0.25291   0.27687   0.28974   0.30529   0.31125
 Alpha virt. eigenvalues --    0.32674   0.37835   0.37866   0.43034   0.45164
 Alpha virt. eigenvalues --    0.50177   1.17219   1.19874   1.23409   1.30828
 Alpha virt. eigenvalues --    1.32040   1.40716   1.43281   1.52070   1.52432
 Alpha virt. eigenvalues --    1.54409   1.63516   1.63745   1.77589   1.77819
 Alpha virt. eigenvalues --    1.85919   1.95758   2.18267   2.45556   2.49678
 Alpha virt. eigenvalues --    2.55233   2.58139   2.80983   2.92011   2.92180
 Alpha virt. eigenvalues --    3.13377   3.16721   3.35781   3.42891   3.43234
 Alpha virt. eigenvalues --    3.51141   3.77478   3.83918   4.03326   4.07520
 Alpha virt. eigenvalues --    4.54615   4.60439
          Condensed to atoms (all electrons):
               1          2          3          4          5          6
     1  O    8.853541   0.321523   0.261236   0.006130  -0.711655   0.045365
     2  H    0.321523   0.323310  -0.034747  -0.015993   0.006130  -0.012340
     3  H    0.261236  -0.034747   0.376004  -0.012340   0.045365   0.000455
     4  H    0.006130  -0.015993  -0.012340   0.323310   0.321523  -0.034747
     5  O   -0.711655   0.006130   0.045365   0.321523   8.853541   0.261236
     6  H    0.045365  -0.012340   0.000455  -0.034747   0.261236   0.376004
 Mulliken charges:
               1
     1  O   -0.776141
     2  H    0.412115
     3  H    0.364026
     4  H    0.412115
     5  O   -0.776141
     6  H    0.364026
 Sum of Mulliken charges =  -0.00000
 Mulliken charges with hydrogens summed into heavy atoms:
               1
     1  O   -0.000000
     5  O   -0.000000
 Electronic spatial extent (au):  <R**2>=             94.6293
 Charge=             -0.0000 electrons
 Dipole moment (field-independent basis, Debye):
    X=             -0.0000    Y=             -0.0000    Z=              0.0000  Tot=              0.0000
 Quadrupole moment (field-independent basis, Debye-Ang):
   XX=            -12.3971   YY=            -10.2811   ZZ=            -16.6324
   XY=             -3.2553   XZ=              3.2500   YZ=              2.5448
 Traceless Quadrupole moment (field-independent basis, Debye-Ang):
   XX=              0.7064   YY=              2.8224   ZZ=             -3.5288
   XY=             -3.2553   XZ=              3.2500   YZ=              2.5448
 Octapole moment (field-independent basis, Debye-Ang**2):
  XXX=              0.0000  YYY=             -0.0000  ZZZ=              0.0000  XYY=              0.0000
  XXY=             -0.0000  XXZ=              0.0000  XZZ=             -0.0000  YZZ=              0.0000
  YYZ=              0.0000  XYZ=             -0.0000
 Hexadecapole moment (field-independent basis, Debye-Ang**3):
 XXXX=            -31.3696 YYYY=            -12.0770 ZZZZ=            -70.2858 XXXY=             -0.2920
 XXXZ=             15.3418 YYYX=             -0.9105 YYYZ=             -0.5118 ZZZX=             19.1755
 ZZZY=             -1.8268 XXYY=             -5.7260 XXZZ=            -16.2894 YYZZ=            -11.4772
 XXYZ=              1.1590 YYXZ=              3.0014 ZZXY=             -1.0347
 N-N= 4.803168583287D+01 E-N=-4.574737330305D+02  KE= 1.523239995255D+02
 Symmetry AG   KE= 7.572795734831D+01
 Symmetry AU   KE= 7.659604217724D+01
 No NMR shielding tensors so no spin-rotation constants.
 Leave Link  601 at Wed Feb 23 11:56:33 2022, MaxMem= 32614907904 cpu:               4.6 elap:               0.3
 (Enter /sw/contrib/gaussian/gdv/I13p/gdv/l701.exe)
 ... and contract with generalized density number  7.
 Compute integral first derivatives.
 Leave Link  701 at Wed Feb 23 11:56:33 2022, MaxMem= 32614907904 cpu:               7.8 elap:               0.4
 (Enter /sw/contrib/gaussian/gdv/I13p/gdv/l702.exe)
 L702 exits ... SP integral derivatives will be done elsewhere.
 Leave Link  702 at Wed Feb 23 11:56:34 2022, MaxMem= 32614907904 cpu:               1.9 elap:               0.1
 (Enter /sw/contrib/gaussian/gdv/I13p/gdv/l703.exe)
 Integral derivatives from FoFJK, PRISM(SPDF).
 Compute integral first derivatives, UseDBF=F ICtDFT=           0.
 Calling FoFJK, ICntrl=  10002127 FMM=F ISym2X=1 I1Cent= 0 IOpClX= 0 NMat=1 NMatS=1 NMatT=0.
 FoFJK:  IHMeth= 1 ICntrl=10002127 DoSepK=F KAlg= 0 I1Cent=           0 FoldK=F
 IRaf=         0 NMat=       1 IRICut=       1 DoRegI=T DoRafI=F ISym2E= 1 IDoP0=0 IntGTp=1.
 FoFCou: FMM=F IPFlag=           0 FMFlag=      100000 FMFlg1=         800
         NFxFlg=           0 DoJE=F BraDBF=F KetDBF=F FulRan=T
         wScrn=  0.000000 ICntrl=  10002127 IOpCl=  0 I1Cent=           0 NGrid=           0
         NMat0=    1 NMatS0=      1 NMatT0=    0 NMatD0=    1 NMtDS0=    0 NMtDT0=    0
 Petite list used in FoFCou.
 Leave Link  703 at Wed Feb 23 11:56:34 2022, MaxMem= 32614907904 cpu:               7.2 elap:               0.3
 (Enter /sw/contrib/gaussian/gdv/I13p/gdv/l716.exe)
 Dipole        = 1.11022302D-15 0.00000000D+00 2.22044605D-16
 ***** Axes restored to original set *****
 -------------------------------------------------------------------
 Center     Atomic                   Forces (Hartrees/Bohr)
 Number     Number              X              Y              Z
 -------------------------------------------------------------------
      1        8          -0.139755794    0.015277575    0.230806792
      2        1          -0.018224380    0.014918600    0.018826928
      3        1           0.003373280    0.004192425    0.015606465
      4        1           0.018224380   -0.014918600   -0.018826928
      5        8           0.139755794   -0.015277575   -0.230806792
      6        1          -0.003373280   -0.004192425   -0.015606465
 -------------------------------------------------------------------
 Cartesian Forces:  Max     0.230806792 RMS     0.090810257
 Leave Link  716 at Wed Feb 23 11:56:35 2022, MaxMem= 32614907904 cpu:               5.3 elap:               0.3
 (Enter /sw/contrib/gaussian/gdv/I13p/gdv/l103.exe)

 GradGradGradGradGradGradGradGradGradGradGradGradGradGradGradGradGradGrad
 Berny optimization.
 FormGI is forming the generalized inverse of G from B-inverse, IUseBI=4.
 Internal  Forces:  Max     0.133603585 RMS     0.062873095
 Search for a local minimum.
 Step number   1 out of a maximum of   32
 All quantities printed in internal units (Hartrees-Bohrs-Radians)
 RMS Force = .62873D-01 SwitMx=.10000D-02 MixMth= 1
 Mixed Optimization -- RFO/linear search
 Second derivative matrix not updated -- first step.
 ITU=  0
     Eigenvalues ---    0.00608   0.08004   0.08326   0.08341   0.10609
     Eigenvalues ---    0.11669   0.14991   0.20297   0.48278   0.55473
     Eigenvalues ---    0.55473   0.55473
 RFO step:  Lambda=-2.19929051D-01 EMin= 6.08179742D-03
 Linear search not attempted -- first point.
 Maximum step size (   0.300) exceeded in Quadratic search.
    -- Step size scaled by   0.396
 Iteration  1 RMS(Cart)=  0.06438340 RMS(Int)=  0.00214814
 Iteration  2 RMS(Cart)=  0.00173161 RMS(Int)=  0.00030653
 Iteration  3 RMS(Cart)=  0.00000283 RMS(Int)=  0.00030651
 Iteration  4 RMS(Cart)=  0.00000000 RMS(Int)=  0.00030651
 ITry= 1 IFail=0 DXMaxC= 1.23D-01 DCOld= 1.00D+10 DXMaxT= 3.00D-01 DXLimC= 3.00D+00 Rises=F
 ClnCor:  largest displacement from symmetrization is 6.20D-10 for atom     4.
 Variable       Old X    -DE/DX   Delta X   Delta X   Delta X     New X
                                 (Linear)    (Quad)   (Total)
    R1        1.81414   0.05908   0.00000   0.03019   0.03019   1.84433
    R2        1.81414   0.00283   0.00000   0.00144   0.00144   1.81558
    R3        2.81049   0.13360   0.00000   0.15713   0.15713   2.96762
    R4        2.81049   0.13360   0.00000   0.15713   0.15713   2.96762
    R5        1.81414   0.05908   0.00000   0.03019   0.03019   1.84433
    R6        1.81414   0.00283   0.00000   0.00144   0.00144   1.81558
    A1        1.91063  -0.00117   0.00000  -0.00326  -0.00258   1.90805
    A2        1.56809  -0.10268   0.00000  -0.09604  -0.09607   1.47202
    A3        1.62638   0.03153   0.00000   0.03062   0.03033   1.65670
    A4        1.57350   0.10268   0.00000   0.09604   0.09607   1.66957
    A5        1.57350   0.10268   0.00000   0.09604   0.09607   1.66957
    A6        1.56809  -0.10268   0.00000  -0.09604  -0.09607   1.47202
    A7        1.62638   0.03153   0.00000   0.03062   0.03033   1.65670
    A8        1.91063  -0.00117   0.00000  -0.00326  -0.00258   1.90805
    D1       -1.62879   0.00292   0.00000   0.00157   0.00134  -1.62745
    D2        0.00000  -0.00000   0.00000  -0.00000  -0.00000  -0.00000
    D3        0.00000   0.00000   0.00000   0.00000   0.00000   0.00000
    D4        1.91102  -0.00660   0.00000  -0.00833  -0.00899   1.90204
    D5        0.00000   0.00000   0.00000   0.00000   0.00000   0.00000
    D6       -1.91102   0.00660   0.00000   0.00833   0.00899  -1.90204
    D7        0.00000  -0.00000   0.00000  -0.00000  -0.00000  -0.00000
    D8        1.62879  -0.00292   0.00000  -0.00157  -0.00134   1.62745
         Item               Value     Threshold  Converged?
 Maximum Force            0.133604     0.000450     NO 
 RMS     Force            0.062873     0.000300     NO 
 Maximum Displacement     0.123358     0.001800     NO 
 RMS     Displacement     0.065121     0.001200     NO 
 Predicted change in Energy=-7.974257D-02
 Lowest energy point so far.  Saving SCF results.
 GradGradGradGradGradGradGradGradGradGradGradGradGradGradGradGradGradGrad

 Leave Link  103 at Wed Feb 23 11:56:35 2022, MaxMem= 32614907904 cpu:               3.3 elap:               0.2
 (Enter /sw/contrib/gaussian/gdv/I13p/gdv/l202.exe)
                          Input orientation:                          
 ---------------------------------------------------------------------
 Center     Atomic      Atomic             Coordinates (Angstroms)
 Number     Number       Type             X           Y           Z
 ---------------------------------------------------------------------
      1          8           0       -1.283520    3.068991    0.543538
      2          1           0       -0.308982    3.059015    0.491520
      3          1           0       -1.593007    3.978511    0.535789
      4          1           0       -1.213226    2.937257   -1.019742
      5          8           0       -0.238687    2.927281   -1.071761
      6          1           0        0.070800    2.017761   -1.064012
 ---------------------------------------------------------------------
                    Distance matrix (angstroms):
                    1          2          3          4          5
     1  O    0.000000
     2  H    0.975977   0.000000
     3  H    0.960765   1.579922   0.000000
     4  H    1.570395   1.765331   1.910006   0.000000
     5  O    1.928976   1.570395   2.350209   0.975977   0.000000
     6  H    2.350209   1.910006   3.028557   1.579922   0.960765
                    6
     6  H    0.000000
 Stoichiometry    H4O2
 Framework group  CI[X(H4O2)]
 Deg. of freedom     6
 Full point group                 CI      NOp   2
 RotChk:  IX=0 Diff= 0.00D+00
 Largest Abelian subgroup         CI      NOp   2
 Largest concise Abelian subgroup CI      NOp   2
                         Standard orientation:                         
 ---------------------------------------------------------------------
 Center     Atomic      Atomic             Coordinates (Angstroms)
 Number     Number       Type             X           Y           Z
 ---------------------------------------------------------------------
      1          8           0       -0.522416    0.070855    0.807650
      2          1           0        0.452122    0.060879    0.755631
      3          1           0       -0.831903    0.980375    0.799900
      4          1           0       -0.452122   -0.060879   -0.755631
      5          8           0        0.522416   -0.070855   -0.807650
      6          1           0        0.831903   -0.980375   -0.799900
 ---------------------------------------------------------------------
 Rotational constants (GHZ):         176.3792782          14.8236053          14.4630386
 Leave Link  202 at Wed Feb 23 11:56:35 2022, MaxMem= 32614907904 cpu:               0.3 elap:               0.0
 (Enter /sw/contrib/gaussian/gdv/I13p/gdv/l301.exe)
 Standard basis: 6-31++G(d,p) (6D, 7F)
 Ernie: Thresh=  0.10000D-02 Tol=  0.10000D-05 Strict=F.
 There are    31 symmetry adapted cartesian basis functions of AG  symmetry.
 There are    31 symmetry adapted cartesian basis functions of AU  symmetry.
 There are    31 symmetry adapted basis functions of AG  symmetry.
 There are    31 symmetry adapted basis functions of AU  symmetry.
    62 basis functions,    96 primitive gaussians,    62 cartesian basis functions
    10 alpha electrons       10 beta electrons
       nuclear repulsion energy        45.7376062477 Hartrees.
 IExCor=    0 DFT=F Ex=HF Corr=None ExCW=0 ScaHFX=  1.000000
 ScaDFX=  1.000000  1.000000  1.000000  1.000000
 IRadAn=      5 IRanWt=     -1 IRanGd=            0 ICorTp=0 IEmpDi=  4
 NAtoms=    6 NActive=    6 NUniq=    3 SFac= 4.00D+00 NAtFMM=   60 NAOKFM=F Big=F
 Integral buffers will be    131072 words long.
 Raffenetti 1 integral format.
 Two-electron integral symmetry is turned on.
 Leave Link  301 at Wed Feb 23 11:56:35 2022, MaxMem= 32614907904 cpu:               1.7 elap:               0.1
 (Enter /sw/contrib/gaussian/gdv/I13p/gdv/l302.exe)
 NPDir=0 NMtPBC=     1 NCelOv=     1 NCel=       1 NClECP=     1 NCelD=      1
         NCelK=      1 NCelE2=     1 NClLst=     1 CellRange=     0.0.
 One-electron integrals computed using PRISM.
 One-electron integral symmetry used in STVInt
 NBasis=    62 RedAO= T EigKep=  4.20D-03  NBF=    31    31
 NBsUse=    62 1.00D-06 EigRej= -1.00D+00 NBFU=    31    31
 Leave Link  302 at Wed Feb 23 11:56:35 2022, MaxMem= 32614907904 cpu:               3.8 elap:               0.2
 (Enter /sw/contrib/gaussian/gdv/I13p/gdv/l303.exe)
 DipDrv:  MaxL=1.
 Leave Link  303 at Wed Feb 23 11:56:35 2022, MaxMem= 32614907904 cpu:               0.7 elap:               0.1
 (Enter /sw/contrib/gaussian/gdv/I13p/gdv/l401.exe)
 Initial guess from the checkpoint file:  "2h2o.chk"
 B after Tr=    -0.000000   -0.000000    0.000000
         Rot=    0.999966    0.007205   -0.000881    0.004028 Ang=   0.95 deg.
 Guess basis will be translated and rotated to current coordinates.
 JPrj=2 DoOrth=T DoCkMO=T.
 Initial guess orbital symmetries:
       Occupied  (AU) (AG) (AG) (AU) (AU) (AG) (AU) (AG) (AG) (AU)
       Virtual   (AG) (AU) (AU) (AG) (AU) (AG) (AG) (AG) (AU) (AG)
                 (AU) (AU) (AG) (AU) (AU) (AG) (AG) (AU) (AU) (AU)
                 (AG) (AU) (AG) (AG) (AU) (AG) (AG) (AU) (AU) (AG)
                 (AU) (AG) (AG) (AG) (AG) (AU) (AU) (AU) (AG) (AU)
                 (AG) (AU) (AU) (AU) (AG) (AG) (AG) (AU) (AU) (AG)
                 (AG) (AU)
 The electronic state of the initial guess is 1-AG.
 Generating alternative initial guess.
 ExpMin= 3.60D-02 ExpMax= 5.48D+03 ExpMxC= 8.25D+02 IAcc=3 IRadAn=         5 AccDes= 0.00D+00
 Harris functional with IExCor=  205 and IRadAn=       5 diagonalized for initial guess.
 HarFok:  IExCor=  205 AccDes= 0.00D+00 IRadAn=         5 IDoV= 1 UseB2=F ITyADJ=14
 ICtDFT=  3500011 ScaDFX=  1.000000  1.000000  1.000000  1.000000
 FoFCou: FMM=F IPFlag=           0 FMFlag=      100000 FMFlg1=           0
         NFxFlg=           0 DoJE=T BraDBF=F KetDBF=T FulRan=T
         wScrn=  0.000000 ICntrl=       500 IOpCl=  0 I1Cent=   200000004 NGrid=           0
         NMat0=    1 NMatS0=      1 NMatT0=    0 NMatD0=    1 NMtDS0=    0 NMtDT0=    0
 Petite list used in FoFCou.
 Harris En= -152.178778973590    
 Leave Link  401 at Wed Feb 23 11:56:36 2022, MaxMem= 32614907904 cpu:               8.7 elap:               0.4
 (Enter /sw/contrib/gaussian/gdv/I13p/gdv/l502.exe)
 Keep R1 ints in memory in symmetry-blocked form, NReq=7714531.
 FoFCou: FMM=F IPFlag=           0 FMFlag=           0 FMFlg1=           0
         NFxFlg=           0 DoJE=F BraDBF=F KetDBF=F FulRan=T
         wScrn=  0.000000 ICntrl=       600 IOpCl=  0 I1Cent=           0 NGrid=           0
         NMat0=    1 NMatS0=   1953 NMatT0=    0 NMatD0=    1 NMtDS0=    0 NMtDT0=    0
 Petite list used in FoFCou.
 Closed shell SCF:
 Using DIIS extrapolation, IDIIS=  1040.
 NGot= 32614907904 LenX= 32613938417 LenY= 32613934132
 Requested convergence on RMS density matrix=1.00D-08 within 128 cycles.
 Requested convergence on MAX density matrix=1.00D-06.
 Requested convergence on             energy=1.00D-06.
 No special actions if energy rises.

 Cycle   1  Pass 1  IDiag  1:
 E= -151.964261043322    
 DIIS: error= 5.03D-03 at cycle   1 NSaved=   1.
 NSaved= 1 IEnMin= 1 EnMin= -151.964261043322     IErMin= 1 ErrMin= 5.03D-03
 ErrMax= 5.03D-03  0.00D+00 EMaxC= 1.00D-01 BMatC= 2.70D-03 BMatP= 2.70D-03
 IDIUse=3 WtCom= 9.50D-01 WtEn= 5.03D-02
 Coeff-Com:  0.100D+01
 Coeff-En:   0.100D+01
 Coeff:      0.100D+01
 Gap=     0.463 Goal=   None    Shift=    0.000
 GapD=    0.463 DampG=2.000 DampE=1.000 DampFc=2.0000 IDamp=-1.
 RMSDP=1.38D-03 MaxDP=1.15D-02              OVMax= 1.86D-02

 Cycle   2  Pass 1  IDiag  1:
 E= -151.967466505774     Delta-E=       -0.003205462452 Rises=F Damp=F
 DIIS: error= 1.12D-03 at cycle   2 NSaved=   2.
 NSaved= 2 IEnMin= 2 EnMin= -151.967466505774     IErMin= 2 ErrMin= 1.12D-03
 ErrMax= 1.12D-03  0.00D+00 EMaxC= 1.00D-01 BMatC= 1.41D-04 BMatP= 2.70D-03
 IDIUse=3 WtCom= 9.89D-01 WtEn= 1.12D-02
 Coeff-Com: -0.141D+00 0.114D+01
 Coeff-En:   0.000D+00 0.100D+01
 Coeff:     -0.139D+00 0.114D+01
 Gap=     0.456 Goal=   None    Shift=    0.000
 RMSDP=4.82D-04 MaxDP=5.75D-03 DE=-3.21D-03 OVMax= 5.26D-03

 Cycle   3  Pass 1  IDiag  1:
 E= -151.967695575263     Delta-E=       -0.000229069489 Rises=F Damp=F
 DIIS: error= 4.93D-04 at cycle   3 NSaved=   3.
 NSaved= 3 IEnMin= 3 EnMin= -151.967695575263     IErMin= 3 ErrMin= 4.93D-04
 ErrMax= 4.93D-04  0.00D+00 EMaxC= 1.00D-01 BMatC= 2.54D-05 BMatP= 1.41D-04
 IDIUse=3 WtCom= 9.95D-01 WtEn= 4.93D-03
 Coeff-Com: -0.722D-01 0.308D+00 0.764D+00
 Coeff-En:   0.000D+00 0.000D+00 0.100D+01
 Coeff:     -0.718D-01 0.307D+00 0.765D+00
 Gap=     0.459 Goal=   None    Shift=    0.000
 RMSDP=1.44D-04 MaxDP=1.39D-03 DE=-2.29D-04 OVMax= 1.99D-03

 Cycle   4  Pass 1  IDiag  1:
 E= -151.967723522202     Delta-E=       -0.000027946939 Rises=F Damp=F
 DIIS: error= 1.90D-04 at cycle   4 NSaved=   4.
 NSaved= 4 IEnMin= 4 EnMin= -151.967723522202     IErMin= 4 ErrMin= 1.90D-04
 ErrMax= 1.90D-04  0.00D+00 EMaxC= 1.00D-01 BMatC= 2.04D-06 BMatP= 2.54D-05
 IDIUse=3 WtCom= 9.98D-01 WtEn= 1.90D-03
 Coeff-Com:  0.299D-01-0.198D+00-0.106D+00 0.127D+01
 Coeff-En:   0.000D+00 0.000D+00 0.000D+00 0.100D+01
 Coeff:      0.298D-01-0.197D+00-0.106D+00 0.127D+01
 Gap=     0.458 Goal=   None    Shift=    0.000
 RMSDP=8.58D-05 MaxDP=1.20D-03 DE=-2.79D-05 OVMax= 1.35D-03

 Cycle   5  Pass 1  IDiag  1:
 E= -151.967729035081     Delta-E=       -0.000005512879 Rises=F Damp=F
 DIIS: error= 6.07D-05 at cycle   5 NSaved=   5.
 NSaved= 5 IEnMin= 5 EnMin= -151.967729035081     IErMin= 5 ErrMin= 6.07D-05
 ErrMax= 6.07D-05  0.00D+00 EMaxC= 1.00D-01 BMatC= 8.94D-08 BMatP= 2.04D-06
 IDIUse=1 WtCom= 1.00D+00 WtEn= 0.00D+00
 Coeff-Com: -0.325D-02 0.300D-01-0.119D-01-0.310D+00 0.130D+01
 Coeff:     -0.325D-02 0.300D-01-0.119D-01-0.310D+00 0.130D+01
 Gap=     0.458 Goal=   None    Shift=    0.000
 RMSDP=1.89D-05 MaxDP=2.84D-04 DE=-5.51D-06 OVMax= 4.07D-04

 Cycle   6  Pass 1  IDiag  1:
 E= -151.967729339706     Delta-E=       -0.000000304625 Rises=F Damp=F
 DIIS: error= 1.32D-05 at cycle   6 NSaved=   6.
 NSaved= 6 IEnMin= 6 EnMin= -151.967729339706     IErMin= 6 ErrMin= 1.32D-05
 ErrMax= 1.32D-05  0.00D+00 EMaxC= 1.00D-01 BMatC= 5.52D-09 BMatP= 8.94D-08
 IDIUse=1 WtCom= 1.00D+00 WtEn= 0.00D+00
 Coeff-Com: -0.216D-02 0.134D-01 0.126D-01-0.730D-01-0.140D+00 0.119D+01
 Coeff:     -0.216D-02 0.134D-01 0.126D-01-0.730D-01-0.140D+00 0.119D+01
 Gap=     0.458 Goal=   None    Shift=    0.000
 RMSDP=4.90D-06 MaxDP=4.96D-05 DE=-3.05D-07 OVMax= 1.05D-04

 Cycle   7  Pass 1  IDiag  1:
 E= -151.967729357886     Delta-E=       -0.000000018180 Rises=F Damp=F
 DIIS: error= 2.59D-06 at cycle   7 NSaved=   7.
 NSaved= 7 IEnMin= 7 EnMin= -151.967729357886     IErMin= 7 ErrMin= 2.59D-06
 ErrMax= 2.59D-06  0.00D+00 EMaxC= 1.00D-01 BMatC= 2.87D-10 BMatP= 5.52D-09
 IDIUse=1 WtCom= 1.00D+00 WtEn= 0.00D+00
 Coeff-Com:  0.753D-03-0.506D-02-0.305D-02 0.321D-01-0.618D-02-0.379D+00
 Coeff-Com:  0.136D+01
 Coeff:      0.753D-03-0.506D-02-0.305D-02 0.321D-01-0.618D-02-0.379D+00
 Coeff:      0.136D+01
 Gap=     0.458 Goal=   None    Shift=    0.000
 RMSDP=9.94D-07 MaxDP=8.58D-06 DE=-1.82D-08 OVMax= 2.20D-05

 Cycle   8  Pass 1  IDiag  1:
 E= -151.967729358872     Delta-E=       -0.000000000986 Rises=F Damp=F
 DIIS: error= 3.62D-07 at cycle   8 NSaved=   8.
 NSaved= 8 IEnMin= 8 EnMin= -151.967729358872     IErMin= 8 ErrMin= 3.62D-07
 ErrMax= 3.62D-07  0.00D+00 EMaxC= 1.00D-01 BMatC= 1.11D-11 BMatP= 2.87D-10
 IDIUse=1 WtCom= 1.00D+00 WtEn= 0.00D+00
 Coeff-Com: -0.555D-04 0.427D-03 0.424D-04-0.327D-02 0.903D-02 0.187D-01
 Coeff-Com: -0.283D+00 0.126D+01
 Coeff:     -0.555D-04 0.427D-03 0.424D-04-0.327D-02 0.903D-02 0.187D-01
 Coeff:     -0.283D+00 0.126D+01
 Gap=     0.458 Goal=   None    Shift=    0.000
 RMSDP=3.12D-07 MaxDP=3.64D-06 DE=-9.86D-10 OVMax= 3.63D-06

 Cycle   9  Pass 1  IDiag  1:
 E= -151.967729358907     Delta-E=       -0.000000000035 Rises=F Damp=F
 DIIS: error= 7.63D-08 at cycle   9 NSaved=   9.
 NSaved= 9 IEnMin= 9 EnMin= -151.967729358907     IErMin= 9 ErrMin= 7.63D-08
 ErrMax= 7.63D-08  0.00D+00 EMaxC= 1.00D-01 BMatC= 4.28D-13 BMatP= 1.11D-11
 IDIUse=1 WtCom= 1.00D+00 WtEn= 0.00D+00
 Coeff-Com: -0.212D-04 0.134D-03 0.114D-03-0.715D-03-0.153D-02 0.125D-01
 Coeff-Com:  0.200D-03-0.253D+00 0.124D+01
 Coeff:     -0.212D-04 0.134D-03 0.114D-03-0.715D-03-0.153D-02 0.125D-01
 Coeff:      0.200D-03-0.253D+00 0.124D+01
 Gap=     0.458 Goal=   None    Shift=    0.000
 RMSDP=4.75D-08 MaxDP=6.52D-07 DE=-3.52D-11 OVMax= 5.82D-07

 Cycle  10  Pass 1  IDiag  1:
 E= -151.967729358909     Delta-E=       -0.000000000002 Rises=F Damp=F
 DIIS: error= 2.12D-08 at cycle  10 NSaved=  10.
 NSaved=10 IEnMin=10 EnMin= -151.967729358909     IErMin=10 ErrMin= 2.12D-08
 ErrMax= 2.12D-08  0.00D+00 EMaxC= 1.00D-01 BMatC= 2.62D-14 BMatP= 4.28D-13
 IDIUse=1 WtCom= 1.00D+00 WtEn= 0.00D+00
 Coeff-Com:  0.980D-05-0.651D-04-0.429D-04 0.394D-03 0.128D-03-0.513D-02
 Coeff-Com:  0.109D-01 0.446D-01-0.472D+00 0.142D+01
 Coeff:      0.980D-05-0.651D-04-0.429D-04 0.394D-03 0.128D-03-0.513D-02
 Coeff:      0.109D-01 0.446D-01-0.472D+00 0.142D+01
 Gap=     0.458 Goal=   None    Shift=    0.000
 RMSDP=7.21D-09 MaxDP=5.91D-08 DE=-1.71D-12 OVMax= 2.09D-07

 SCF Done:  E(RHF) =  -151.967729359     A.U. after   10 cycles
            NFock= 10  Conv=0.72D-08     -V/T= 2.0000
 KE= 1.519698513765D+02 PE=-4.526212007506D+02 EE= 1.029460137675D+02
 Leave Link  502 at Wed Feb 23 11:56:36 2022, MaxMem= 32614907904 cpu:               5.6 elap:               0.2
 (Enter /sw/contrib/gaussian/gdv/I13p/gdv/l801.exe)
 Windowed orbitals will be sorted by symmetry type.
 ExpMin= 3.60D-02 ExpMax= 5.48D+03 ExpMxC= 8.25D+02 IAcc=3 IRadAn=         5 AccDes= 0.00D+00
 HarFok:  IExCor=  205 AccDes= 0.00D+00 IRadAn=         5 IDoV=-2 UseB2=F ITyADJ=14
 ICtDFT= 12500011 ScaDFX=  1.000000  1.000000  1.000000  1.000000
 Largest valence mixing into a core orbital is  8.45D-05
 Largest core mixing into a valence orbital is  1.79D-05
 Range of M.O.s used for correlation:     3    62
 NBasis=    62 NAE=    10 NBE=    10 NFC=     2 NFV=     0
 NROrb=     60 NOA=     8 NOB=     8 NVA=    52 NVB=    52
 Leave Link  801 at Wed Feb 23 11:56:36 2022, MaxMem= 32614907904 cpu:               2.1 elap:               0.1
 (Enter /sw/contrib/gaussian/gdv/I13p/gdv/l804.exe)
 Closed-shell transformation, MDV= 32614907904 ITran=4 ISComp=2.
 Semi-Direct transformation.
 ModeAB=           4 MOrb=             8 LenV=   32614672825
 LASXX=       386990 LTotXX=      386990 LenRXX=      793142
 LTotAB=      406152 MaxLAS=      513120 LenRXY=           0
 NonZer=     1180132 LenScr=     2097152 LnRSAI=      513120
 LnScr1=     1048576 LExtra=           0 Total=      4451990
 MaxDsk=          -1 SrtSym=           T ITran=            4
 DoSDTr:  NPSUse= 28
 JobTyp=0 Pass  1:  I=   1 to   8.
 (rs|ai) integrals will be sorted in core.
 Complete sort for first half transformation.
 First half transformation complete.
 Complete sort for second half transformation.
 Second half transformation complete.
 Spin components of T(2) and E(2):
     alpha-alpha T2 =       0.1473342686D-01 E2=     -0.5405899423D-01
     alpha-beta  T2 =       0.8164766010D-01 E2=     -0.3071527528D+00
     beta-beta   T2 =       0.1473342686D-01 E2=     -0.5405899423D-01
 ANorm=    0.1054094167D+01
 E2 =    -0.4152707413D+00 EUMP2 =    -0.15238300010021D+03
 Leave Link  804 at Wed Feb 23 11:56:36 2022, MaxMem= 32614907904 cpu:               6.5 elap:               0.3
 (Enter /sw/contrib/gaussian/gdv/I13p/gdv/l913.exe)
 CIDS:  MDV= 32614907904.
 Frozen-core window:  NFC=   2 NFV=   0.
 IFCWin=0 IBDFC=1 NFBD=     0     0 NFCmp=     0     0 NFFFC=     0     0
 Using DD3R+UMP44R for 1st iteration.
 Using DD4RQ for 2nd and later iterations.
 Keep R2 and R3 ints in memory in symmetry-blocked form, NReq=7719742.
 FoFCou: FMM=F IPFlag=           0 FMFlag=           0 FMFlg1=           0
         NFxFlg=           0 DoJE=F BraDBF=F KetDBF=F FulRan=T
         wScrn=  0.000000 ICntrl=       600 IOpCl=  0 I1Cent=           0 NGrid=           0
         NMat0=    1 NMatS0=   1953 NMatT0=    0 NMatD0=    1 NMtDS0=    0 NMtDT0=    0
 Petite list used in FoFCou.
 CIDS: In Core Option IDoMem=           1.
 Coupled Cluster theory with single and double substitutions
 ===========================================================
 Iterations=  50 Convergence= 0.100D-07
 Produce multiple copies of IABC intergrals
 Iteration Nr.   1
 **********************
 DD1Dir will call FoFMem   1 times, MxPair=        72
 NAB=    36 NAA=     0 NBB=     0.
 MP4(R+Q)=  0.41439971D-02
 Maximum subspace dimension=  5
 A-vector RMS=  4.4668801D-03 Max=  1.6814476D-02 conv= 1.00D-06.
 RLE energy=       -0.4180347697
 E3=       -0.71034973D-02        EUMP3=      -0.15239010360D+03
 E4(DQ)=   -0.32110212D-02        UMP4(DQ)=   -0.15239331462D+03
 E4(SDQ)=  -0.68697622D-02        UMP4(SDQ)=  -0.15239697336D+03
 VARIATIONAL ENERGIES WITH THE FIRST-ORDER WAVEFUNCTION:
 DE(Corr)= -0.41801660     E(Corr)=     -152.38574596    
 NORM(A)=   0.10561094D+01
 Iteration Nr.   2
 **********************
 DD1Dir will call FoFMem   1 times, MxPair=        72
 NAB=    36 NAA=     0 NBB=     0.
 A-vector RMS=  5.2976021D-04 Max=  1.5769964D-03 conv= 1.00D-06.
 RLE energy=       -0.4280790017
 DE(Corr)= -0.42686460     E(CORR)=     -152.39459395     Delta=-8.85D-03
 NORM(A)=   0.10603208D+01
 Iteration Nr.   3
 **********************
 DD1Dir will call FoFMem   1 times, MxPair=        72
 NAB=    36 NAA=     0 NBB=     0.
 A-vector RMS=  7.9598954D-04 Max=  4.7659412D-03 conv= 1.00D-06.
 RLE energy=       -0.4288975421
 DE(Corr)= -0.42798046     E(CORR)=     -152.39570982     Delta=-1.12D-03
 NORM(A)=   0.10616030D+01
 Iteration Nr.   4
 **********************
 DD1Dir will call FoFMem   1 times, MxPair=        72
 NAB=    36 NAA=     0 NBB=     0.
 A-vector RMS=  1.2671108D-04 Max=  6.8725366D-04 conv= 1.00D-06.
 RLE energy=       -0.4289867996
 DE(Corr)= -0.42890838     E(CORR)=     -152.39663774     Delta=-9.28D-04
 NORM(A)=   0.10619225D+01
 Iteration Nr.   5
 **********************
 DD1Dir will call FoFMem   1 times, MxPair=        72
 NAB=    36 NAA=     0 NBB=     0.
 A-vector RMS=  1.1970779D-04 Max=  9.5473402D-04 conv= 1.00D-06.
 RLE energy=       -0.4290031485
 DE(Corr)= -0.42898726     E(CORR)=     -152.39671662     Delta=-7.89D-05
 NORM(A)=   0.10620470D+01
 Iteration Nr.   6
 **********************
 DD1Dir will call FoFMem   1 times, MxPair=        72
 NAB=    36 NAA=     0 NBB=     0.
 A-vector RMS=  2.9325633D-05 Max=  1.8417391D-04 conv= 1.00D-06.
 RLE energy=       -0.4289884409
 DE(Corr)= -0.42899695     E(CORR)=     -152.39672631     Delta=-9.69D-06
 NORM(A)=   0.10620780D+01
 Iteration Nr.   7
 **********************
 DD1Dir will call FoFMem   1 times, MxPair=        72
 NAB=    36 NAA=     0 NBB=     0.
 A-vector RMS=  1.4127629D-05 Max=  9.5504154D-05 conv= 1.00D-06.
 RLE energy=       -0.4289922596
 DE(Corr)= -0.42899779     E(CORR)=     -152.39672715     Delta=-8.38D-07
 NORM(A)=   0.10620866D+01
 Iteration Nr.   8
 **********************
 DD1Dir will call FoFMem   1 times, MxPair=        72
 NAB=    36 NAA=     0 NBB=     0.
 A-vector RMS=  4.1645415D-06 Max=  1.9950515D-05 conv= 1.00D-06.
 RLE energy=       -0.4289946144
 DE(Corr)= -0.42899538     E(CORR)=     -152.39672474     Delta= 2.41D-06
 NORM(A)=   0.10620898D+01
 Iteration Nr.   9
 **********************
 DD1Dir will call FoFMem   1 times, MxPair=        72
 NAB=    36 NAA=     0 NBB=     0.
 A-vector RMS=  1.6993549D-06 Max=  8.8236127D-06 conv= 1.00D-06.
 RLE energy=       -0.4289959768
 DE(Corr)= -0.42899621     E(CORR)=     -152.39672557     Delta=-8.36D-07
 NORM(A)=   0.10620903D+01
 Iteration Nr.  10
 **********************
 DD1Dir will call FoFMem   1 times, MxPair=        72
 NAB=    36 NAA=     0 NBB=     0.
 A-vector RMS=  7.9339324D-07 Max=  4.2561140D-06 conv= 1.00D-06.
 RLE energy=       -0.4289967863
 DE(Corr)= -0.42899656     E(CORR)=     -152.39672592     Delta=-3.48D-07
 NORM(A)=   0.10620909D+01
 Iteration Nr.  11
 **********************
 DD1Dir will call FoFMem   1 times, MxPair=        72
 NAB=    36 NAA=     0 NBB=     0.
 A-vector RMS=  3.1727750D-07 Max=  1.3535844D-06 conv= 1.00D-06.
 RLE energy=       -0.4289969397
 DE(Corr)= -0.42899684     E(CORR)=     -152.39672620     Delta=-2.78D-07
 NORM(A)=   0.10620911D+01
 Iteration Nr.  12
 **********************
 DD1Dir will call FoFMem   1 times, MxPair=        72
 NAB=    36 NAA=     0 NBB=     0.
 A-vector RMS=  1.5739099D-07 Max=  1.1273676D-06 conv= 1.00D-06.
 RLE energy=       -0.4289970270
 DE(Corr)= -0.42899698     E(CORR)=     -152.39672634     Delta=-1.43D-07
 NORM(A)=   0.10620912D+01
 Iteration Nr.  13
 **********************
 DD1Dir will call FoFMem   1 times, MxPair=        72
 NAB=    36 NAA=     0 NBB=     0.
 A-vector RMS=  7.1989703D-08 Max=  3.1442364D-07 conv= 1.00D-06.
 RLE energy=       -0.4289970310
 DE(Corr)= -0.42899702     E(CORR)=     -152.39672638     Delta=-3.47D-08
 NORM(A)=   0.10620913D+01
 Iteration Nr.  14
 **********************
 DD1Dir will call FoFMem   1 times, MxPair=        72
 NAB=    36 NAA=     0 NBB=     0.
 A-vector RMS=  3.8454047D-08 Max=  2.2669132D-07 conv= 1.00D-06.
 RLE energy=       -0.4289970309
 DE(Corr)= -0.42899703     E(CORR)=     -152.39672639     Delta=-1.25D-08
 NORM(A)=   0.10620913D+01
 Iteration Nr.  15
 **********************
 DD1Dir will call FoFMem   1 times, MxPair=        72
 NAB=    36 NAA=     0 NBB=     0.
 A-vector RMS=  1.8628944D-08 Max=  1.3405991D-07 conv= 1.00D-06.
 RLE energy=       -0.4289970322
 DE(Corr)= -0.42899703     E(CORR)=     -152.39672639     Delta=-2.44D-09
 NORM(A)=   0.10620914D+01
 CI/CC converged in   15 iterations to DelEn=-2.44D-09 Conv= 1.00D-08 ErrA1= 1.86D-08 Conv= 1.00D-06
 Wavefunction amplitudes converged. E(Corr)=     -152.39672639    
 Largest amplitude= 2.47D-02

 Z-amplitude iterations

 Iteration Nr.   1
 **********************
 DD1Dir will call FoFMem   1 times, MxPair=        72
 NAB=    36 NAA=     0 NBB=     0.
 A-vector RMS=  1.8929660D-03 Max=  6.0678864D-03 conv= 1.00D-06.
 RLE energy=       -0.4289959368
 DE(Z)= -0.42290702     E(Z)=     -152.39063638     Delta= 6.09D-03
 NORM(A)=   0.10620907D+01
 Iteration Nr.   2
 **********************
 DD1Dir will call FoFMem   1 times, MxPair=        72
 NAB=    36 NAA=     0 NBB=     0.
 A-vector RMS=  1.8926122D-03 Max=  6.0668147D-03 conv= 1.00D-06.
 RLE energy=       -0.4289950903
 DE(Z)= -0.42290671     E(Z)=     -152.39063607     Delta= 3.08D-07
 NORM(A)=   0.10620903D+01
 Iteration Nr.   3
 **********************
 DD1Dir will call FoFMem   1 times, MxPair=        72
 NAB=    36 NAA=     0 NBB=     0.
 A-vector RMS=  1.8925262D-03 Max=  6.0665468D-03 conv= 1.00D-06.
 RLE energy=       -0.4289915123
 DE(Z)= -0.42290662     E(Z)=     -152.39063598     Delta= 9.06D-08
 NORM(A)=   0.10620881D+01
 Iteration Nr.   4
 **********************
 DD1Dir will call FoFMem   1 times, MxPair=        72
 NAB=    36 NAA=     0 NBB=     0.
 A-vector RMS=  1.8916033D-03 Max=  6.0636498D-03 conv= 1.00D-06.
 RLE energy=       -0.4289883054
 DE(Z)= -0.42290580     E(Z)=     -152.39063516     Delta= 8.24D-07
 NORM(A)=   0.10620861D+01
 Iteration Nr.   5
 **********************
 DD1Dir will call FoFMem   1 times, MxPair=        72
 NAB=    36 NAA=     0 NBB=     0.
 A-vector RMS=  1.8908147D-03 Max=  6.0610573D-03 conv= 1.00D-06.
 RLE energy=       -0.4212100372
 DE(Z)= -0.42290509     E(Z)=     -152.39063445     Delta= 7.07D-07
 NORM(A)=   0.10579588D+01
 Iteration Nr.   6
 **********************
 DD1Dir will call FoFMem   1 times, MxPair=        72
 NAB=    36 NAA=     0 NBB=     0.
 A-vector RMS=  7.7167495D-06 Max=  4.0248154D-05 conv= 1.00D-06.
 RLE energy=       -0.4212131265
 DE(Z)= -0.42121242     E(Z)=     -152.38894177     Delta= 1.69D-03
 NORM(A)=   0.10579575D+01
 Iteration Nr.   7
 **********************
 DD1Dir will call FoFMem   1 times, MxPair=        72
 NAB=    36 NAA=     0 NBB=     0.
 A-vector RMS=  3.8262159D-06 Max=  2.1091125D-05 conv= 1.00D-06.
 RLE energy=       -0.4212117344
 DE(Z)= -0.42121231     E(Z)=     -152.38894167     Delta= 1.06D-07
 NORM(A)=   0.10579542D+01
 Iteration Nr.   8
 **********************
 DD1Dir will call FoFMem   1 times, MxPair=        72
 NAB=    36 NAA=     0 NBB=     0.
 A-vector RMS=  1.2886628D-06 Max=  6.9693997D-06 conv= 1.00D-06.
 RLE energy=       -0.4212118446
 DE(Z)= -0.42121220     E(Z)=     -152.38894156     Delta= 1.09D-07
 NORM(A)=   0.10579531D+01
 Iteration Nr.   9
 **********************
 DD1Dir will call FoFMem   1 times, MxPair=        72
 NAB=    36 NAA=     0 NBB=     0.
 A-vector RMS=  4.9509667D-07 Max=  2.5034453D-06 conv= 1.00D-06.
 RLE energy=       -0.4212118662
 DE(Z)= -0.42121187     E(Z)=     -152.38894123     Delta= 3.27D-07
 NORM(A)=   0.10579529D+01
 Iteration Nr.  10
 **********************
 DD1Dir will call FoFMem   1 times, MxPair=        72
 NAB=    36 NAA=     0 NBB=     0.
 A-vector RMS=  2.0835566D-07 Max=  1.0740824D-06 conv= 1.00D-06.
 RLE energy=       -0.4212117301
 DE(Z)= -0.42121177     E(Z)=     -152.38894113     Delta= 9.80D-08
 NORM(A)=   0.10579529D+01
 Iteration Nr.  11
 **********************
 DD1Dir will call FoFMem   1 times, MxPair=        72
 NAB=    36 NAA=     0 NBB=     0.
 A-vector RMS=  1.0259206D-07 Max=  6.1411096D-07 conv= 1.00D-06.
 RLE energy=       -0.4212118010
 DE(Z)= -0.42121181     E(Z)=     -152.38894117     Delta=-3.58D-08
 NORM(A)=   0.10579530D+01
 Iteration Nr.  12
 **********************
 DD1Dir will call FoFMem   1 times, MxPair=        72
 NAB=    36 NAA=     0 NBB=     0.
 A-vector RMS=  4.1247455D-08 Max=  1.9879335D-07 conv= 1.00D-06.
 RLE energy=       -0.4212118378
 DE(Z)= -0.42121182     E(Z)=     -152.38894118     Delta=-1.17D-08
 NORM(A)=   0.10579530D+01
 Iteration Nr.  13
 **********************
 DD1Dir will call FoFMem   1 times, MxPair=        72
 NAB=    36 NAA=     0 NBB=     0.
 A-vector RMS=  1.2150817D-08 Max=  5.1936692D-08 conv= 1.00D-06.
 RLE energy=       -0.4212118403
 DE(Z)= -0.42121184     E(Z)=     -152.38894120     Delta=-1.62D-08
 NORM(A)=   0.10579530D+01
 Iteration Nr.  14
 **********************
 DD1Dir will call FoFMem   1 times, MxPair=        72
 NAB=    36 NAA=     0 NBB=     0.
 A-vector RMS=  6.7891987D-09 Max=  4.9909351D-08 conv= 1.00D-06.
 RLE energy=       -0.4212118424
 DE(Z)= -0.42121184     E(Z)=     -152.38894120     Delta=-3.39D-09
 NORM(A)=   0.10579530D+01
 CI/CC converged in   14 iterations to DelEn=-3.39D-09 Conv= 1.00D-08 ErrA1= 6.79D-09 Conv= 1.00D-06
 Z-amplitudes converged.
 Discarding MO integrals.
 Leave Link  913 at Wed Feb 23 11:56:40 2022, MaxMem= 32614907904 cpu:              85.5 elap:               3.2
 (Enter /sw/contrib/gaussian/gdv/I13p/gdv/l1111.exe)
 Unit  1 TFree=       3803044 TCopy=        820050.
 Selected functions:
 Compute CCSD 2PDM.
 Form Post-SCF non-separable gradient here.
 IO1PDM=    0 IOW=    0 IO2PDM=    0.
 MDV=   32614907904.
 Frozen-core window:  NFC=   2 NFV=   0.
 Leave Link 1111 at Wed Feb 23 11:56:51 2022, MaxMem= 32614907904 cpu:             320.4 elap:              11.7
 (Enter /sw/contrib/gaussian/gdv/I13p/gdv/l1002.exe)
 Minotr:  Closed shell wavefunction.
          Computing CCSD/QCISD derivatives.
          Using Z-Vector for PSCF gradient.
          Skipping F1 and S1 gradient terms here.
          IDoAtm=111111
          Frozen-core window.
          Direct CPHF calculation.
          Differentiating once with respect to electric field.
                with respect to dipole field.
          Differentiating once with respect to nuclear coordinates.
          Using symmetry in CPHF.
          Requested convergence is 1.0D-10 RMS, and 1.0D-09 maximum.
          NewPWx=F KeepS1=T KeepF1=T KeepIn=T MapXYZ=F SortEE=F KeepMc=T.
 Keep R1 ints in memory in symmetry-blocked form, NReq=7715764.
 FoFCou: FMM=F IPFlag=           0 FMFlag=           0 FMFlg1=           0
         NFxFlg=           0 DoJE=F BraDBF=F KetDBF=F FulRan=T
         wScrn=  0.000000 ICntrl=       600 IOpCl=  0 I1Cent=           0 NGrid=           0
         NMat0=    1 NMatS0=   1953 NMatT0=    0 NMatD0=    1 NMtDS0=    0 NMtDT0=    0
 Petite list used in FoFCou.
          MDV=   32614907904 using IRadAn=       5.
          Solving linear equations separately, MaxMat=       0.
          There are     1 degrees of freedom in the 1st order CPHF.  IDoFFX=0 NUNeed=     1.
 LinEq1:  Iter=  0 NonCon=     1 RMS=5.27D-03 Max=4.72D-02 NDo=     1
 AX will form     1 AO Fock derivatives at one time.
 LinEq1:  Iter=  1 NonCon=     1 RMS=1.27D-03 Max=7.28D-03 NDo=     1
 LinEq1:  Iter=  2 NonCon=     1 RMS=4.26D-04 Max=3.14D-03 NDo=     1
 LinEq1:  Iter=  3 NonCon=     1 RMS=5.08D-05 Max=3.10D-04 NDo=     1
 LinEq1:  Iter=  4 NonCon=     1 RMS=7.30D-06 Max=4.14D-05 NDo=     1
 LinEq1:  Iter=  5 NonCon=     1 RMS=1.47D-06 Max=1.02D-05 NDo=     1
 LinEq1:  Iter=  6 NonCon=     1 RMS=2.90D-07 Max=1.74D-06 NDo=     1
 LinEq1:  Iter=  7 NonCon=     1 RMS=3.64D-08 Max=2.05D-07 NDo=     1
 LinEq1:  Iter=  8 NonCon=     1 RMS=7.22D-09 Max=4.84D-08 NDo=     1
 LinEq1:  Iter=  9 NonCon=     1 RMS=1.40D-09 Max=8.64D-09 NDo=     1
 LinEq1:  Iter= 10 NonCon=     1 RMS=1.57D-10 Max=1.45D-09 NDo=     1
 LinEq1:  Iter= 11 NonCon=     0 RMS=1.87D-11 Max=1.30D-10 NDo=     1
 Linear equations converged to 1.000D-10 1.000D-09 after    11 iterations.
 End of Minotr F.D. properties file   721 does not exist.
 End of Minotr F.D. properties file   722 does not exist.
 End of Minotr F.D. properties file   788 does not exist.
[...]
                                                                                                                       X         X   
                                                                                                                       X         X   
                                                                                                                       X         X   
                                                                                                                       X         X   
                                                                                                                       X         X   
                                                                                                                       X             
                                                                                                                       X             
                                                                                                                       X             
                                                                                                                       X             
                                                                                                                       X             
 
 ***** Axes restored to original set *****
 -------------------------------------------------------------------
 Center     Atomic                   Forces (Hartrees/Bohr)
 Number     Number              X              Y              Z
 -------------------------------------------------------------------
      1        8          -0.000035323   -0.000007925    0.000003821
      2        1           0.000045131   -0.000002520   -0.000002213
      3        1          -0.000005899    0.000007313   -0.000000315
      4        1          -0.000045131    0.000002520    0.000002213
      5        8           0.000035323    0.000007925   -0.000003821
      6        1           0.000005899   -0.000007313    0.000000315
 -------------------------------------------------------------------
 Cartesian Forces:  Max     0.000045131 RMS     0.000019612
 Force constants in Cartesian coordinates: 
                1             2             3             4             5 
      1  0.612146D+00
      2 -0.833804D-01  0.437759D+00
      3 -0.119147D+00  0.232345D+00  0.140392D+00
      4 -0.529729D+00  0.217521D-02  0.664607D-01  0.541622D+00
      5 -0.519472D-01 -0.398046D-01 -0.123695D-01  0.883853D-02  0.416457D-01
      6  0.409194D-01 -0.182636D-01 -0.177374D-01 -0.611086D-01  0.184981D-01
      7 -0.793445D-01  0.780964D-01  0.478706D-01 -0.107063D-01  0.445858D-01
      8  0.133850D+00 -0.396712D+00 -0.218484D+00 -0.105677D-01 -0.133039D-02
      9  0.762354D-01 -0.211078D+00 -0.118142D+00 -0.419643D-02 -0.583999D-02
     10 -0.149501D-02  0.953122D-03  0.368742D-03  0.965428D-03 -0.144037D-02
     11 -0.138637D-03 -0.172270D-02  0.351414D-02 -0.144037D-02  0.162468D-02
     12 -0.227110D-02  0.265132D-02  0.936031D-03 -0.181891D-02 -0.340862D-02
     13 -0.156044D-02  0.182858D-02  0.398061D-02 -0.149501D-02 -0.138637D-03
     14  0.182858D-02  0.395673D-04 -0.533959D-02  0.953122D-03 -0.172270D-02
     15  0.398061D-02 -0.533959D-02 -0.441929D-02  0.368742D-03  0.351414D-02
     16 -0.144812D-04  0.328850D-03  0.466702D-03 -0.659663D-03  0.101889D-03
     17 -0.211877D-03  0.440336D-03  0.332432D-03  0.416397D-04 -0.413021D-03
     18  0.283800D-03 -0.312179D-03 -0.102989D-02  0.292484D-03 -0.394592D-03
                6             7             8             9            10 
      6  0.232986D-01
      7  0.235976D-01  0.906715D-01
      8  0.687533D-03 -0.123015D+00  0.397901D+00
      9 -0.261046D-02 -0.729095D-01  0.217431D+00  0.120652D+00
     10 -0.181891D-02 -0.659663D-03  0.416397D-04  0.292484D-03  0.541622D+00
     11 -0.340862D-02  0.101889D-03 -0.413021D-03 -0.394592D-03  0.883853D-02
     12 -0.526583D-02  0.682098D-03 -0.162850D-03  0.138086D-02 -0.611086D-01
     13 -0.227110D-02 -0.144812D-04 -0.211877D-03  0.283800D-03 -0.529729D+00
     14  0.265132D-02  0.328850D-03  0.440336D-03 -0.312179D-03  0.217521D-02
     15  0.936031D-03  0.466702D-03  0.332432D-03 -0.102989D-02  0.664607D-01
     16  0.682098D-03  0.543504D-04 -0.982887D-04  0.293454D-03 -0.107063D-01
     17 -0.162850D-03 -0.982887D-04  0.115604D-03  0.194258D-03 -0.105677D-01
     18  0.138086D-02  0.293454D-03  0.194258D-03 -0.250955D-03 -0.419643D-02
               11            12            13            14            15 
     11  0.416457D-01
     12  0.184981D-01  0.232986D-01
     13 -0.519472D-01  0.409194D-01  0.612146D+00
     14 -0.398046D-01 -0.182636D-01 -0.833804D-01  0.437759D+00
     15 -0.123695D-01 -0.177374D-01 -0.119147D+00  0.232345D+00  0.140392D+00
     16  0.445858D-01  0.235976D-01 -0.793445D-01  0.780964D-01  0.478706D-01
     17 -0.133039D-02  0.687533D-03  0.133850D+00 -0.396712D+00 -0.218484D+00
     18 -0.583999D-02 -0.261046D-02  0.762354D-01 -0.211078D+00 -0.118142D+00
               16            17            18 
     16  0.906715D-01
     17 -0.123015D+00  0.397901D+00
     18 -0.729095D-01  0.217431D+00  0.120652D+00
 FormGI is forming the generalized inverse of G from B-inverse, IUseBI=4.
 Force constants in internal coordinates: 
                1             2             3             4             5 
      1  0.475616D+00
      2 -0.661242D-02  0.560083D+00
      3  0.371794D-01  0.156684D-02  0.982456D-02
      4 -0.342197D-01 -0.137534D-02 -0.494926D-02  0.982456D-02
      5  0.727461D-01 -0.123841D-02 -0.342197D-01  0.371794D-01  0.475616D+00
      6 -0.123841D-02 -0.158925D-03 -0.137534D-02  0.156684D-02 -0.661242D-02
      7  0.222128D-01  0.129342D-01  0.794895D-02 -0.616075D-02 -0.106219D-01
      8 -0.266052D-01 -0.429575D-02 -0.540258D-02  0.380165D-02  0.193697D-01
      9  0.317354D-02  0.503135D-02  0.207530D-02 -0.141748D-02  0.677429D-03
     10 -0.670499D-01  0.591089D-02 -0.109964D-01  0.125973D-01  0.742854D-01
     11  0.742854D-01  0.135344D-02  0.125973D-01 -0.109964D-01 -0.670499D-01
     12  0.193697D-01 -0.296859D-02  0.380165D-02 -0.540258D-02 -0.266052D-01
     13  0.677429D-03 -0.794043D-03 -0.141748D-02  0.207530D-02  0.317354D-02
     14 -0.106219D-01 -0.194420D-03 -0.616075D-02  0.794895D-02  0.222128D-01
     15  0.125937D-02 -0.804309D-04  0.725608D-03 -0.982151D-03 -0.235021D-02
     16 -0.684650D-03  0.177862D-02  0.880181D-03 -0.880181D-03  0.684650D-03
     17  0.162747D-02 -0.422793D-02 -0.209227D-02  0.209227D-02 -0.162747D-02
     18  0.303807D-02  0.981022D-02  0.337936D-02 -0.274051D-02  0.540640D-02
     19  0.162747D-02 -0.422793D-02 -0.209227D-02  0.209227D-02 -0.162747D-02
     20 -0.540640D-02 -0.370731D-03  0.274051D-02 -0.337936D-02 -0.303807D-02
     21 -0.684650D-03  0.177862D-02  0.880181D-03 -0.880181D-03  0.684650D-03
     22  0.235021D-02  0.109598D-02  0.982151D-03 -0.725608D-03 -0.125937D-02
                6             7             8             9            10 
      6  0.560083D+00
      7 -0.194420D-03  0.315164D-01
      8 -0.296859D-02 -0.132352D-01  0.988994D-02
      9 -0.794043D-03  0.107242D-01 -0.363637D-02  0.441757D-02
     10  0.135344D-02  0.638099D-02  0.698600D-03  0.334265D-02  0.322942D-01
     11  0.591089D-02  0.122118D-01 -0.147056D-01  0.212541D-02 -0.182872D-01
     12 -0.429575D-02 -0.535755D-02  0.411708D-02 -0.183170D-02 -0.147056D-01
     13  0.503135D-02 -0.188423D-02 -0.183170D-02 -0.112708D-02  0.212541D-02
     14  0.129342D-01 -0.190411D-02 -0.535755D-02 -0.188423D-02  0.122118D-01
     15 -0.109598D-02  0.938958D-03  0.678264D-04 -0.128709D-03 -0.806614D-03
     16 -0.177862D-02  0.392062D-02 -0.420862D-03  0.168138D-02  0.927345D-03
     17  0.422793D-02 -0.931965D-02  0.100043D-02 -0.399678D-02 -0.220438D-02
     18  0.370731D-03  0.219602D-01 -0.685584D-02  0.743298D-02  0.802072D-02
     19  0.422793D-02 -0.931965D-02  0.100043D-02 -0.399678D-02 -0.220438D-02
     20 -0.981022D-02  0.728960D-04  0.386784D-02  0.108804D-02 -0.270296D-02
     21 -0.177862D-02  0.392062D-02 -0.420862D-03  0.168138D-02  0.927345D-03
     22  0.804309D-04  0.265137D-02 -0.101189D-02  0.108317D-02  0.273098D-03
               11            12            13            14            15 
     11  0.322942D-01
     12  0.698600D-03  0.988994D-02
     13  0.334265D-02 -0.363637D-02  0.441757D-02
     14  0.638099D-02 -0.132352D-01  0.107242D-01  0.315164D-01
     15 -0.273098D-03  0.101189D-02 -0.108317D-02 -0.265137D-02  0.840811D-03
     16 -0.927345D-03  0.420862D-03 -0.168138D-02 -0.392062D-02  0.426860D-03
     17  0.220438D-02 -0.100043D-02  0.399678D-02  0.931965D-02 -0.101468D-02
     18  0.270296D-02 -0.386784D-02 -0.108804D-02 -0.728960D-04  0.726750D-03
     19  0.220438D-02 -0.100043D-02  0.399678D-02  0.931965D-02 -0.101468D-02
     20 -0.802072D-02  0.685584D-02 -0.743298D-02 -0.219602D-01  0.166740D-02
     21 -0.927345D-03  0.420862D-03 -0.168138D-02 -0.392062D-02  0.426860D-03
     22  0.806614D-03 -0.678264D-04  0.128709D-03 -0.938958D-03 -0.154524D-04
               16            17            18            19            20 
     16  0.112391D-02
     17 -0.267164D-02  0.635072D-02
     18  0.266689D-02 -0.633943D-02  0.185737D-01
     19 -0.267164D-02  0.635072D-02 -0.633943D-02  0.635072D-02
     20  0.266689D-02 -0.633943D-02 -0.164441D-02 -0.633943D-02  0.185737D-01
     21  0.112391D-02 -0.267164D-02  0.266689D-02 -0.267164D-02  0.266689D-02
     22  0.426860D-03 -0.101468D-02  0.166740D-02 -0.101468D-02  0.726750D-03
               21            22 
     21  0.112391D-02
     22  0.426860D-03  0.840811D-03
 Leave Link  716 at Wed Feb 23 12:09:49 2022, MaxMem= 32614907904 cpu:               1.0 elap:               0.1
 (Enter /sw/contrib/gaussian/gdv/I13p/gdv/l103.exe)

 GradGradGradGradGradGradGradGradGradGradGradGradGradGradGradGradGradGrad
 Berny optimization.
 Red2BG is reusing G-inverse.
 Internal  Forces:  Max     0.000043171 RMS     0.000013345
 Search for a local minimum.
 Step number   1 out of a maximum of    2
 All quantities printed in internal units (Hartrees-Bohrs-Radians)
 Second derivative matrix not updated -- analytic derivatives used.
 ITU=  0
     Eigenvalues ---   -0.00061   0.00080   0.00146   0.00266   0.00454
     Eigenvalues ---    0.00876   0.06868   0.07058   0.47303   0.54572
     Eigenvalues ---    0.56135   0.56409
 Eigenvalue     1 is  -6.10D-04 should be greater than     0.000000 Eigenvector:
                          R3        R4        A4        A5        D6
   1                    0.47611  -0.47611   0.32620  -0.32620  -0.30629
                          D4        A2        A6        D8        D1
   1                   -0.30629  -0.23724   0.23724  -0.10106  -0.10106
 Angle between quadratic step and forces=  81.99 degrees.
 Linear search not attempted -- first point.
 Iteration  1 RMS(Cart)=  0.00070970 RMS(Int)=  0.00000105
 Iteration  2 RMS(Cart)=  0.00000073 RMS(Int)=  0.00000011
 ITry= 1 IFail=0 DXMaxC= 1.62D-03 DCOld= 1.00D+10 DXMaxT= 3.00D-01 DXLimC= 3.00D+00 Rises=F
 ClnCor:  largest displacement from symmetrization is 5.29D-09 for atom     4.
 Variable       Old X    -DE/DX   Delta X   Delta X   Delta X     New X
                                 (Linear)    (Quad)   (Total)
    R1        1.82329   0.00004   0.00000   0.00008   0.00008   1.82337
    R2        1.81768   0.00001   0.00000   0.00002   0.00002   1.81769
    R3        4.33411  -0.00000   0.00000   0.00004   0.00004   4.33415
    R4        4.33411  -0.00000   0.00000   0.00004   0.00004   4.33415
    R5        1.82329   0.00004   0.00000   0.00008   0.00008   1.82337
    R6        1.81768   0.00001   0.00000   0.00002   0.00002   1.81769
    A1        1.85185   0.00000   0.00000   0.00000   0.00000   1.85185
    A2        1.18415   0.00000   0.00000  -0.00011  -0.00011   1.18404
    A3        2.48365  -0.00000   0.00000  -0.00199  -0.00199   2.48166
    A4        1.95744  -0.00000   0.00000   0.00011   0.00011   1.95755
    A5        1.95744  -0.00000   0.00000   0.00011   0.00011   1.95755
    A6        1.18415   0.00000   0.00000  -0.00011  -0.00011   1.18404
    A7        2.48365  -0.00000   0.00000  -0.00199  -0.00199   2.48166
    A8        1.85185   0.00000   0.00000   0.00000   0.00000   1.85185
    D1       -2.45226   0.00000   0.00000   0.00215   0.00215  -2.45011
    D2       -0.00000  -0.00000   0.00000   0.00000   0.00000  -0.00000
    D3       -0.00000   0.00000   0.00000  -0.00000   0.00000  -0.00000
    D4        1.53371   0.00000   0.00000   0.00077   0.00077   1.53448
    D5       -0.00000   0.00000   0.00000  -0.00000   0.00000  -0.00000
    D6       -1.53371  -0.00000   0.00000  -0.00077  -0.00077  -1.53448
    D7       -0.00000  -0.00000   0.00000   0.00000   0.00000  -0.00000
    D8        2.45226  -0.00000   0.00000  -0.00215  -0.00215   2.45011
         Item               Value     Threshold  Converged?
 Maximum Force            0.000043     0.000450     YES
 RMS     Force            0.000013     0.000300     YES
 Maximum Displacement     0.001616     0.001800     YES
 RMS     Displacement     0.000710     0.001200     YES
 Predicted change in Energy=-1.870292D-08
 Optimization completed.
    -- Stationary point found.
                           ----------------------------
                           !   Optimized Parameters   !
                           ! (Angstroms and Degrees)  !
 --------------------------                            --------------------------
 ! Name  Definition              Value          Derivative Info.                !
 --------------------------------------------------------------------------------
 ! R1    R(1,2)                  0.9648         -DE/DX =    0.0                 !
 ! R2    R(1,3)                  0.9619         -DE/DX =    0.0                 !
 ! R3    R(1,4)                  2.2935         -DE/DX =    0.0                 !
 ! R4    R(2,5)                  2.2935         -DE/DX =    0.0                 !
 ! R5    R(4,5)                  0.9648         -DE/DX =    0.0                 !
 ! R6    R(5,6)                  0.9619         -DE/DX =    0.0                 !
 ! A1    A(2,1,3)              106.1034         -DE/DX =    0.0                 !
 ! A2    A(2,1,4)               67.8468         -DE/DX =    0.0                 !
 ! A3    A(3,1,4)              142.3029         -DE/DX =    0.0                 !
 ! A4    A(1,2,5)              112.1532         -DE/DX =    0.0                 !
 ! A5    A(1,4,5)              112.1532         -DE/DX =    0.0                 !
 ! A6    A(2,5,4)               67.8468         -DE/DX =    0.0                 !
 ! A7    A(2,5,6)              142.3029         -DE/DX =    0.0                 !
 ! A8    A(4,5,6)              106.1034         -DE/DX =    0.0                 !
 ! D1    D(3,1,2,5)           -140.5041         -DE/DX =    0.0                 !
 ! D2    D(4,1,2,5)              0.0            -DE/DX =    0.0                 !
 ! D3    D(2,1,4,5)              0.0            -DE/DX =    0.0                 !
 ! D4    D(3,1,4,5)             87.8751         -DE/DX =    0.0                 !
 ! D5    D(1,2,5,4)              0.0            -DE/DX =    0.0                 !
 ! D6    D(1,2,5,6)            -87.8751         -DE/DX =    0.0                 !
 ! D7    D(1,4,5,2)              0.0            -DE/DX =    0.0                 !
 ! D8    D(1,4,5,6)            140.5041         -DE/DX =    0.0                 !
 --------------------------------------------------------------------------------
 GradGradGradGradGradGradGradGradGradGradGradGradGradGradGradGradGradGrad

 Leave Link  103 at Wed Feb 23 12:09:49 2022, MaxMem= 32614907904 cpu:               9.1 elap:               0.4
 (Enter /sw/contrib/gaussian/gdv/I13p/gdv/l9999.exe)
 Unable to Open any file for archive entry.
 1\1\GINC-N2078\Freq\RCCSD-FC\6-31++G(d,p)\H4O2\AL777\23-Feb-2022\0\\#P
  Geom=AllCheck Guess=TCheck SCRF=Check GenChk RCCSD(FC)/6-31++G(d,p) F
 req\\2H2O\\0,1\O,-1.5818374543,3.3925757485,0.8016350408\H,-0.62315232
 84,3.4277852703,0.6986609235\H,-1.8324807967,4.2076412012,1.2466592692
 \H,-0.8990551016,2.5684866707,-1.2268831735\O,0.0596300243,2.603696192
 5,-1.3298572908\H,0.3102733667,1.7886307398,-1.7748815192\\Version=ES6
 4L-GDVRevI.13+\State=1-AG\HF=-152.0673422\MP2=-152.4751332\MP3=-152.48
 3615\MP4D=-152.4909212\MP4DQ=-152.4874187\MP4SDQ=-152.4904043\CCSD=-15
 2.4903527\RMSD=4.004e-10\RMSF=1.961e-05\ZeroPoint=0.0465854\Thermal=0.
 0517979\Dipole=0.,0.,0.\DipoleDeriv=-0.5351947,0.0774024,0.032799,0.07
 15649,-0.4938832,0.0930345,0.0353471,0.0923594,-0.7645367,0.2118147,-0
 .0578352,-0.0316818,-0.0778368,0.3087609,0.0109768,-0.0512507,0.004026
 4,0.4302365,0.3233717,-0.0195607,-0.0011186,0.0062744,0.1851342,-0.103
 9934,0.0159199,-0.0963884,0.3343198,0.2118147,-0.0578352,-0.0316818,-0
 .0778368,0.3087609,0.0109768,-0.0512507,0.0040264,0.4302365,-0.5351947
 ,0.0774024,0.032799,0.0715649,-0.4938832,0.0930345,0.0353471,0.0923594
 ,-0.7645367,0.3233717,-0.0195607,-0.0011186,0.0062744,0.1851342,-0.103
 9934,0.0159199,-0.0963884,0.3343198\PG=CI [X(H4O2)]\NImag=1\\0.6121455
 6,-0.08338044,0.43775909,-0.11914692,0.23234491,0.14039169,-0.52972947
 ,0.00217521,0.06646069,0.54162238,-0.05194721,-0.03980463,-0.01236946,
 0.00883853,0.04164574,0.04091939,-0.01826364,-0.01773738,-0.06110856,0
 .01849812,0.02329859,-0.07934451,0.07809643,0.04787058,-0.01070626,0.0
 4458581,0.02359757,0.09067150,0.13384959,-0.39671227,-0.21848387,-0.01
 056770,-0.00133039,0.00068753,-0.12301513,0.39790065,0.07623536,-0.211
 07848,-0.11814214,-0.00419643,-0.00583999,-0.00261046,-0.07290955,0.21
 743057,0.12065176,-0.00149501,0.00095312,0.00036874,0.00096543,-0.0014
 4037,-0.00181891,-0.00065966,0.00004164,0.00029248,0.54162238,-0.00013
 864,-0.00172270,0.00351414,-0.00144037,0.00162468,-0.00340862,0.000101
 89,-0.00041302,-0.00039459,0.00883853,0.04164574,-0.00227110,0.0026513
 2,0.00093603,-0.00181891,-0.00340862,-0.00526583,0.00068210,-0.0001628
 5,0.00138086,-0.06110856,0.01849812,0.02329859,-0.00156044,0.00182858,
 0.00398061,-0.00149501,-0.00013864,-0.00227110,-0.00001448,-0.00021188
 ,0.00028380,-0.52972947,-0.05194721,0.04091939,0.61214556,0.00182858,0
 .00003957,-0.00533959,0.00095312,-0.00172270,0.00265132,0.00032885,0.0
 0044034,-0.00031218,0.00217521,-0.03980463,-0.01826364,-0.08338044,0.4
 3775909,0.00398061,-0.00533959,-0.00441929,0.00036874,0.00351414,0.000
 93603,0.00046670,0.00033243,-0.00102989,0.06646069,-0.01236946,-0.0177
 3738,-0.11914692,0.23234491,0.14039169,-0.00001448,0.00032885,0.000466
 70,-0.00065966,0.00010189,0.00068210,0.00005435,-0.00009829,0.00029345
 ,-0.01070626,0.04458581,0.02359757,-0.07934451,0.07809643,0.04787058,0
 .09067150,-0.00021188,0.00044034,0.00033243,0.00004164,-0.00041302,-0.
 00016285,-0.00009829,0.00011560,0.00019426,-0.01056770,-0.00133039,0.0
 0068753,0.13384959,-0.39671227,-0.21848387,-0.12301513,0.39790065,0.00
 028380,-0.00031218,-0.00102989,0.00029248,-0.00039459,0.00138086,0.000
 29345,0.00019426,-0.00025096,-0.00419643,-0.00583999,-0.00261046,0.076
 23536,-0.21107848,-0.11814214,-0.07290955,0.21743057,0.12065176\\0.000
 03532,0.00000793,-0.00000382,-0.00004513,0.00000252,0.00000221,0.00000
 590,-0.00000731,0.00000031,0.00004513,-0.00000252,-0.00000221,-0.00003
 532,-0.00000793,0.00000382,-0.00000590,0.00000731,-0.00000031\\\@
 The archive entry for this job was punched.


 THE REAL VOYAGE OF DISCOVERY CONSISTS NOT IN SEEKING NEW LANDSCAPES 
 BUT IN HAVING NEW EYES.
                                                    -- MARCEL PROUST
 Job cpu time:       0 days  3 hours  7 minutes  0.3 seconds.
 Elapsed time:       0 days  0 hours  6 minutes 57.2 seconds.
 File lengths (MBytes):  RWF=    368 Int=      0 D2E=      0 Chk=     44 Scr=      8
 Normal termination of Gaussian DV at Wed Feb 23 12:09:49 2022.
