 Entering Gaussian System, Link 0=gdv
 Input=2h2o_rhf.gjf
 Output=2h2o_rhf.log
 Initial command:
 /sw/contrib/gaussian/gdv/J14p/gdv/l1.exe "/scr/Gau-28112.inp" -scrdir="/scr/"
 Entering Link 1 = /sw/contrib/gaussian/gdv/J14p/gdv/l1.exe PID=     28113.
  
 Copyright (c) 1988-2021, Gaussian, Inc.  All Rights Reserved.
  
 This is the private, development version of
 the Gaussian(R) DV system of programs. It is based on
 the Gaussian(R) 16 system (copyright 2016, Gaussian, Inc.),
 the Gaussian(R) 09 system (copyright 2009, Gaussian, Inc.),
 the Gaussian(R) 03 system (copyright 2003, Gaussian, Inc.),
 the Gaussian(R) 98 system (copyright 1998, Gaussian, Inc.),
 the Gaussian(R) 94 system (copyright 1995, Gaussian, Inc.),
 the Gaussian 92(TM) system (copyright 1992, Gaussian, Inc.),
 the Gaussian 90(TM) system (copyright 1990, Gaussian, Inc.),
 the Gaussian 88(TM) system (copyright 1988, Gaussian, Inc.),
 the Gaussian 86(TM) system (copyright 1986, Carnegie Mellon
 University), and the Gaussian 82(TM) system (copyright 1983,
 Carnegie Mellon University). Gaussian is a federally registered
 trademark of Gaussian, Inc.
  
 This software contains proprietary and confidential information,
 including trade secrets, belonging to Gaussian, Inc.
  
 This software is provided under written license and may be
 used, copied, transmitted, or stored only in accord with that
 written license.
  
 The following legend is applicable only to US Government
 contracts under FAR:
  
                    RESTRICTED RIGHTS LEGEND
  
 Use, reproduction and disclosure by the US Government is
 subject to restrictions as set forth in subparagraphs (a)
 and (c) of the Commercial Computer Software - Restricted
 Rights clause in FAR 52.227-19.
  
 Gaussian, Inc.
 340 Quinnipiac St., Bldg. 40, Wallingford CT 06492
  
  
 ---------------------------------------------------------------
 Warning -- This program may not be used in any manner that
 competes with the business of Gaussian, Inc. or will provide
 assistance to any competitor of Gaussian, Inc.  The licensee
 of this program is prohibited from giving any competitor of
 Gaussian, Inc. access to this program.  By using this program,
 the user acknowledges that Gaussian, Inc. is engaged in the
 business of creating and licensing software in the field of
 computational chemistry and represents and warrants to the
 licensee that it is not a competitor of Gaussian, Inc. and that
 it will not use this program in any manner prohibited above.
 ---------------------------------------------------------------
  

 Cite this work as:
 Gaussian Development Version, Revision J.14+,
 M. J. Frisch, G. W. Trucks, H. B. Schlegel, G. E. Scuseria, 
 M. A. Robb, J. R. Cheeseman, G. Scalmani, V. Barone, 
 G. A. Petersson, H. Nakatsuji, X. Li, A. V. Marenich, M. Caricato, 
 J. Bloino, B. G. Janesko, J. Zheng, R. Gomperts, B. Mennucci, 
 H. P. Hratchian, J. V. Ortiz, A. F. Izmaylov, J. L. Sonnenberg, 
 D. Williams-Young, F. Ding, F. Lipparini, F. Egidi, J. Goings, 
 B. Peng, A. Petrone, T. Henderson, D. Ranasinghe, V. G. Zakrzewski, 
 J. Gao, N. Rega, G. Zheng, W. Liang, M. Hada, M. Ehara, K. Toyota, 
 R. Fukuda, J. Hasegawa, M. Ishida, T. Nakajima, Y. Honda, O. Kitao, 
 H. Nakai, T. Vreven, K. Throssell, J. A. Montgomery, Jr., 
 J. E. Peralta, F. Ogliaro, M. J. Bearpark, J. J. Heyd, 
 E. N. Brothers, K. N. Kudin, V. N. Staroverov, T. A. Keith, 
 R. Kobayashi, J. Normand, K. Raghavachari, A. P. Rendell, 
 J. C. Burant, S. S. Iyengar, J. Tomasi, M. Cossi, J. M. Millam, 
 M. Klene, C. Adamo, R. Cammi, J. W. Ochterski, R. L. Martin, 
 K. Morokuma, O. Farkas, J. B. Foresman, and D. J. Fox, 
 Gaussian, Inc., Wallingford CT, 2020.
 
 *******************************************
 Gaussian DV:  ES64L-GDVRevJ.14+  3-Jan-2021
                 28-Feb-2022 
 *******************************************
 %chk=2h2o_rhf.chk
 %mem=200GB
 %nprocshared=28
 Will use up to   28 processors via shared memory.
 %subst l910 /gscratch/chem/lixinlu/cas_2022Feb
 ----------------------------------------------------------------------
 #p nonstd 1/38=1,172=1/1; 2/12=2,15=1,40=1/2; 3/5=16,6=1,7=10,11=1,14=
 -4,25=1,30=1,116=1/1,2,3; 4//1; 5/5=2,38=5/2; 6/7=3,28=1/1; 99/5=1,9=1
 /99;
 ----------------------------------------------------------------------
 1/38=1,172=1/1;
 2/12=2,15=1,40=1/2;
 3/5=16,6=1,7=10,11=1,14=-4,25=1,30=1,116=1/1,2,3;
 4//1;
 5/5=2,38=5/2;
 6/7=3,28=1/1;
 99/5=1,9=1/99;
 Leave Link    1 at Mon Feb 28 12:33:23 2022, MaxMem= 26843545600 cpu:               4.1 elap:               0.2
 (Enter /sw/contrib/gaussian/gdv/J14p/gdv/l101.exe)
 ---------------
 water dimer RHF
 ---------------
 Symbolic Z-matrix:
 Charge =  0 Multiplicity = 1
 O                    -0.82073   0.39444   1.06575 
 H                     0.13795   0.42965   0.96277 
 H                    -1.07138   1.20951   1.51077 
 H                    -0.13795  -0.42965  -0.96277 
 O                     0.82073  -0.39444  -1.06575 
 H                     1.07138  -1.20951  -1.51077 
 
 ITRead=  0  0  0  0  0  0
 MicOpt= -1 -1 -1 -1 -1 -1
 NAtoms=      6 NQM=        6 NQMF=       0 NMMI=      0 NMMIF=      0
                NMic=       0 NMicF=      0.
                    Isotopes and Nuclear Properties:
 (Nuclear quadrupole moments (NQMom) in fm**2, nuclear magnetic moments (NMagM)
  in nuclear magnetons)

  Atom         1           2           3           4           5           6
 IAtWgt=          16           1           1           1          16           1
 AtmWgt=  15.9949146   1.0078250   1.0078250   1.0078250  15.9949146   1.0078250
 NucSpn=           0           1           1           1           0           1
 AtZEff=  -0.0000000  -0.0000000  -0.0000000  -0.0000000  -0.0000000  -0.0000000
 NQMom=    0.0000000   0.0000000   0.0000000   0.0000000   0.0000000   0.0000000
 NMagM=    0.0000000   2.7928460   2.7928460   2.7928460   0.0000000   2.7928460
 AtZNuc=   8.0000000   1.0000000   1.0000000   1.0000000   8.0000000   1.0000000
 Leave Link  101 at Mon Feb 28 12:33:24 2022, MaxMem= 26843545600 cpu:              24.4 elap:               0.9
 (Enter /sw/contrib/gaussian/gdv/J14p/gdv/l202.exe)
                          Input orientation:                          
 ---------------------------------------------------------------------
 Center     Atomic      Atomic             Coordinates (Angstroms)
 Number     Number       Type             X           Y           Z
 ---------------------------------------------------------------------
      1          8           0       -0.820734    0.394440    1.065746
      2          1           0        0.137951    0.429649    0.962772
      3          1           0       -1.071377    1.209505    1.510770
      4          1           0       -0.137951   -0.429649   -0.962772
      5          8           0        0.820734   -0.394440   -1.065746
      6          1           0        1.071377   -1.209505   -1.510770
 ---------------------------------------------------------------------
                    Distance matrix (angstroms):
                    1          2          3          4          5
     1  O    0.000000
     2  H    0.964842   0.000000
     3  H    0.961873   1.539789   0.000000
     4  H    2.293513   2.126555   3.110711   0.000000
     5  O    2.803570   2.293513   3.576473   0.964842   0.000000
     6  H    3.576473   3.110711   4.424105   1.539789   0.961873
                    6
     6  H    0.000000
 Symmetry turned off by external request.
 Stoichiometry    H4O2
 Framework group  CI[X(H4O2)]
 Deg. of freedom     6
 Full point group                 CI      NOp   2
 Rotational constants (GHZ):         287.9691508           6.8508304           6.7854656
 Leave Link  202 at Mon Feb 28 12:33:24 2022, MaxMem= 26843545600 cpu:               0.6 elap:               0.1
 (Enter /sw/contrib/gaussian/gdv/J14p/gdv/l301.exe)
 Standard basis: Aug-CC-pVTZ (5D, 7F)
 Ernie: Thresh=  0.10000D-02 Tol=  0.10000D-05 Strict=F.
 Ernie:  6 primitive shells out of 104 were deleted.
   184 basis functions,   252 primitive gaussians,   210 cartesian basis functions
    10 alpha electrons       10 beta electrons
       nuclear repulsion energy        37.1129188493 Hartrees.
 IExCor=       0 DFT=F Ex=HF Corr=None N6=None ScaHFX=  1.000000
 ScaDFX=  1.000000  1.000000  1.000000  1.000000  1.000000  0.000000
 ScaDFX=  0.000000  0.000000  0.000000  0.000000  0.000000  0.000000
 IRadAn=      5 IRanWt=     -1 IRanGd=            0 ICorTp=0 IEmpDi=  4
 NAtoms=    6 NActive=    6 NUniq=    6 SFac= 1.00D+00 NAtFMM=   60 NAOKFM=F Big=F
 Integral buffers will be    131072 words long.
 Raffenetti 1 integral format.
 Two-electron integral symmetry is turned off.
 Leave Link  301 at Mon Feb 28 12:33:24 2022, MaxMem= 26843545600 cpu:               2.4 elap:               0.1
 (Enter /sw/contrib/gaussian/gdv/J14p/gdv/l302.exe)
 NPDir=0 NMtPBC=     1 NCelOv=     1 NCel=       1 NClECP=     1 NCelD=      1
         NCelK=      1 NCelE2=     1 NClLst=     1 CellRange=     0.0.
 One-electron integrals computed using PRISM.
 NBasis=   184 RedAO= T EigKep=  2.19D-04  NBF=   184
 NBsUse=   184 1.00D-06 EigRej= -1.00D+00 NBFU=   184
 Leave Link  302 at Mon Feb 28 12:33:26 2022, MaxMem= 26843545600 cpu:              20.2 elap:               1.3
 (Enter /sw/contrib/gaussian/gdv/J14p/gdv/l303.exe)
 DipDrv:  MaxL=1.
 Leave Link  303 at Mon Feb 28 12:33:26 2022, MaxMem= 26843545600 cpu:               1.2 elap:               0.1
 (Enter /sw/contrib/gaussian/gdv/J14p/gdv/l401.exe)
 ExpMin= 2.53D-02 ExpMax= 1.53D+04 ExpMxC= 5.22D+02 IAcc=3 IRadAn=         5 AccDes= 0.00D+00
 Harris functional with IExCor= 2005 and IRadAn=       5 diagonalized for initial guess.
 HarFok:  IExCor=    2005 AccDes= 0.00D+00 IRadAn=         5 IDoV= 1 UseB2=F ITyADJ=14 ICtDFT=  3500011
 FoFCou: FMM=F IPFlag=           0 FMFlag=      100000 FMFlg1=           0
         NFxFlg=           0 DoJE=T BraDBF=F KetDBF=T FulRan=T
         wScrn=  0.000000 ICntrl=       500 IOpCl=  0 I1Cent=   200000004 NGrid=           0
         NMat0=    1 NMatS0=      1 NMatT0=    0 NMatD0=    1 NMtDS0=    0 NMtDT0=    0
 Symmetry not used in FoFCou.
 Harris En= -152.308520926174    
 JPrj=0 DoOrth=F DoCkMO=F.
 Leave Link  401 at Mon Feb 28 12:33:29 2022, MaxMem= 26843545600 cpu:              36.8 elap:               3.3
 (Enter /sw/contrib/gaussian/gdv/J14p/gdv/l502.exe)
 Keep R1 ints in memory in canonical form, NReq=158656595.
 FoFCou: FMM=F IPFlag=           0 FMFlag=           0 FMFlg1=           0
         NFxFlg=           0 DoJE=F BraDBF=F KetDBF=F FulRan=T
         wScrn=  0.000000 ICntrl=       600 IOpCl=  0 I1Cent=           0 NGrid=           0
         NMat0=    1 NMatS0=  17020 NMatT0=    0 NMatD0=    1 NMtDS0=    0 NMtDT0=    0
 Symmetry not used in FoFCou.
 Two-electron integral symmetry not used.
 Closed shell SCF:
 Using DIIS extrapolation, IDIIS=  1040.
 NGot= 26843545600 LenX= 26698601260 LenY= 26698556719
 Requested convergence on RMS density matrix=1.00D-08 within 128 cycles.
 Requested convergence on MAX density matrix=1.00D-06.
 Requested convergence on             energy=1.00D-06.
 No special actions if energy rises.

 Cycle   1  Pass 1  IDiag  1:
 E= -151.957774777315    
 DIIS: error= 4.40D-02 at cycle   1 NSaved=   1.
 NSaved= 1 IEnMin= 1 EnMin= -151.957774777315     IErMin= 1 ErrMin= 4.40D-02
 ErrMax= 4.40D-02  0.00D+00 EMaxC= 1.00D-01 BMatC= 3.94D-01 BMatP= 3.94D-01
 IDIUse=3 WtCom= 5.60D-01 WtEn= 4.40D-01
 Coeff-Com:  0.100D+01
 Coeff-En:   0.100D+01
 Coeff:      0.100D+01
 Gap=     0.470 Goal=   None    Shift=    0.000
 GapD=    0.470 DampG=2.000 DampE=0.500 DampFc=1.0000 IDamp=-1.
 RMSDP=1.54D-03 MaxDP=4.67D-02              OVMax= 1.18D-01

 Cycle   2  Pass 1  IDiag  1:
 E= -152.059007722294     Delta-E=       -0.101232944978 Rises=F Damp=F
 DIIS: error= 2.52D-02 at cycle   2 NSaved=   2.
 NSaved= 2 IEnMin= 2 EnMin= -152.059007722294     IErMin= 2 ErrMin= 2.52D-02
 ErrMax= 2.52D-02  0.00D+00 EMaxC= 1.00D-01 BMatC= 1.07D-01 BMatP= 3.94D-01
 IDIUse=3 WtCom= 7.48D-01 WtEn= 2.52D-01
 Coeff-Com:  0.312D+00 0.688D+00
 Coeff-En:   0.180D+00 0.820D+00
 Coeff:      0.279D+00 0.721D+00
 Gap=     0.561 Goal=   None    Shift=    0.000
 RMSDP=9.35D-04 MaxDP=3.51D-02 DE=-1.01D-01 OVMax= 6.25D-02

 Cycle   3  Pass 1  IDiag  1:
 E= -152.122035982050     Delta-E=       -0.063028259756 Rises=F Damp=F
 DIIS: error= 6.11D-03 at cycle   3 NSaved=   3.
 NSaved= 3 IEnMin= 3 EnMin= -152.122035982050     IErMin= 3 ErrMin= 6.11D-03
 ErrMax= 6.11D-03  0.00D+00 EMaxC= 1.00D-01 BMatC= 4.59D-03 BMatP= 1.07D-01
 IDIUse=3 WtCom= 9.39D-01 WtEn= 6.11D-02
 Coeff-Com: -0.299D-01 0.139D+00 0.891D+00
 Coeff-En:   0.000D+00 0.000D+00 0.100D+01
 Coeff:     -0.281D-01 0.131D+00 0.897D+00
 Gap=     0.534 Goal=   None    Shift=    0.000
 RMSDP=1.43D-04 MaxDP=3.68D-03 DE=-6.30D-02 OVMax= 1.13D-02

 Cycle   4  Pass 1  IDiag  1:
 E= -152.124890986024     Delta-E=       -0.002855003974 Rises=F Damp=F
 DIIS: error= 3.89D-04 at cycle   4 NSaved=   4.
 NSaved= 4 IEnMin= 4 EnMin= -152.124890986024     IErMin= 4 ErrMin= 3.89D-04
 ErrMax= 3.89D-04  0.00D+00 EMaxC= 1.00D-01 BMatC= 1.98D-05 BMatP= 4.59D-03
 IDIUse=3 WtCom= 9.96D-01 WtEn= 3.89D-03
 Coeff-Com:  0.728D-02-0.518D-01-0.268D+00 0.131D+01
 Coeff-En:   0.000D+00 0.000D+00 0.000D+00 0.100D+01
 Coeff:      0.726D-02-0.516D-01-0.267D+00 0.131D+01
 Gap=     0.535 Goal=   None    Shift=    0.000
 RMSDP=2.70D-05 MaxDP=6.00D-04 DE=-2.86D-03 OVMax= 2.54D-03

 Cycle   5  Pass 1  IDiag  1:
 E= -152.124931987395     Delta-E=       -0.000041001371 Rises=F Damp=F
 DIIS: error= 1.01D-04 at cycle   5 NSaved=   5.
 NSaved= 5 IEnMin= 5 EnMin= -152.124931987395     IErMin= 5 ErrMin= 1.01D-04
 ErrMax= 1.01D-04  0.00D+00 EMaxC= 1.00D-01 BMatC= 1.14D-06 BMatP= 1.98D-05
 IDIUse=3 WtCom= 9.99D-01 WtEn= 1.01D-03
 Coeff-Com: -0.312D-04 0.321D-02 0.177D-01-0.303D+00 0.128D+01
 Coeff-En:   0.000D+00 0.000D+00 0.000D+00 0.000D+00 0.100D+01
 Coeff:     -0.312D-04 0.320D-02 0.177D-01-0.303D+00 0.128D+01
 Gap=     0.536 Goal=   None    Shift=    0.000
 RMSDP=7.80D-06 MaxDP=2.08D-04 DE=-4.10D-05 OVMax= 7.70D-04

 Cycle   6  Pass 1  IDiag  1:
 E= -152.124934863334     Delta-E=       -0.000002875939 Rises=F Damp=F
 DIIS: error= 1.59D-05 at cycle   6 NSaved=   6.
 NSaved= 6 IEnMin= 6 EnMin= -152.124934863334     IErMin= 6 ErrMin= 1.59D-05
 ErrMax= 1.59D-05  0.00D+00 EMaxC= 1.00D-01 BMatC= 3.36D-08 BMatP= 1.14D-06
 IDIUse=1 WtCom= 1.00D+00 WtEn= 0.00D+00
 Coeff-Com: -0.230D-03 0.106D-02 0.432D-02 0.226D-01-0.321D+00 0.129D+01
 Coeff:     -0.230D-03 0.106D-02 0.432D-02 0.226D-01-0.321D+00 0.129D+01
 Gap=     0.536 Goal=   None    Shift=    0.000
 RMSDP=1.68D-06 MaxDP=5.99D-05 DE=-2.88D-06 OVMax= 1.44D-04

 Cycle   7  Pass 1  IDiag  1:
 E= -152.124934961823     Delta-E=       -0.000000098489 Rises=F Damp=F
 DIIS: error= 3.12D-06 at cycle   7 NSaved=   7.
 NSaved= 7 IEnMin= 7 EnMin= -152.124934961823     IErMin= 7 ErrMin= 3.12D-06
 ErrMax= 3.12D-06  0.00D+00 EMaxC= 1.00D-01 BMatC= 1.33D-09 BMatP= 3.36D-08
 IDIUse=1 WtCom= 1.00D+00 WtEn= 0.00D+00
 Coeff-Com:  0.357D-04-0.315D-03-0.168D-02 0.132D-01-0.157D-01-0.160D+00
 Coeff-Com:  0.116D+01
 Coeff:      0.357D-04-0.315D-03-0.168D-02 0.132D-01-0.157D-01-0.160D+00
 Coeff:      0.116D+01
 Gap=     0.536 Goal=   None    Shift=    0.000
 RMSDP=2.17D-07 MaxDP=4.34D-06 DE=-9.85D-08 OVMax= 2.25D-05

 Cycle   8  Pass 1  IDiag  1:
 E= -152.124934964631     Delta-E=       -0.000000002808 Rises=F Damp=F
 DIIS: error= 7.50D-07 at cycle   8 NSaved=   8.
 NSaved= 8 IEnMin= 8 EnMin= -152.124934964631     IErMin= 8 ErrMin= 7.50D-07
 ErrMax= 7.50D-07  0.00D+00 EMaxC= 1.00D-01 BMatC= 7.13D-11 BMatP= 1.33D-09
 IDIUse=1 WtCom= 1.00D+00 WtEn= 0.00D+00
 Coeff-Com:  0.397D-05 0.143D-04 0.179D-03-0.421D-02 0.190D-01-0.257D-01
 Coeff-Com: -0.301D+00 0.131D+01
 Coeff:      0.397D-05 0.143D-04 0.179D-03-0.421D-02 0.190D-01-0.257D-01
 Coeff:     -0.301D+00 0.131D+01
 Gap=     0.536 Goal=   None    Shift=    0.000
 RMSDP=6.98D-08 MaxDP=1.25D-06 DE=-2.81D-09 OVMax= 5.72D-06

 Cycle   9  Pass 1  IDiag  1:
 E= -152.124934964817     Delta-E=       -0.000000000186 Rises=F Damp=F
 DIIS: error= 1.11D-07 at cycle   9 NSaved=   9.
 NSaved= 9 IEnMin= 9 EnMin= -152.124934964817     IErMin= 9 ErrMin= 1.11D-07
 ErrMax= 1.11D-07  0.00D+00 EMaxC= 1.00D-01 BMatC= 1.42D-12 BMatP= 7.13D-11
 IDIUse=1 WtCom= 1.00D+00 WtEn= 0.00D+00
 Coeff-Com: -0.128D-05 0.584D-05 0.162D-04 0.184D-03-0.168D-02 0.630D-02
 Coeff-Com:  0.123D-01-0.183D+00 0.117D+01
 Coeff:     -0.128D-05 0.584D-05 0.162D-04 0.184D-03-0.168D-02 0.630D-02
 Coeff:      0.123D-01-0.183D+00 0.117D+01
 Gap=     0.536 Goal=   None    Shift=    0.000
 RMSDP=1.24D-08 MaxDP=3.11D-07 DE=-1.86D-10 OVMax= 7.35D-07

 Cycle  10  Pass 1  IDiag  1:
 E= -152.124934964821     Delta-E=       -0.000000000004 Rises=F Damp=F
 DIIS: error= 2.67D-08 at cycle  10 NSaved=  10.
 NSaved=10 IEnMin=10 EnMin= -152.124934964821     IErMin=10 ErrMin= 2.67D-08
 ErrMax= 2.67D-08  0.00D+00 EMaxC= 1.00D-01 BMatC= 8.03D-14 BMatP= 1.42D-12
 IDIUse=1 WtCom= 1.00D+00 WtEn= 0.00D+00
 Coeff-Com: -0.431D-07-0.137D-05-0.108D-04 0.182D-03-0.690D-03 0.361D-03
 Coeff-Com:  0.147D-01-0.472D-01-0.126D+00 0.116D+01
 Coeff:     -0.431D-07-0.137D-05-0.108D-04 0.182D-03-0.690D-03 0.361D-03
 Coeff:      0.147D-01-0.472D-01-0.126D+00 0.116D+01
 Gap=     0.536 Goal=   None    Shift=    0.000
 RMSDP=2.84D-09 MaxDP=7.44D-08 DE=-4.32D-12 OVMax= 1.49D-07

 SCF Done:  E(RHF) =  -152.124934965     A.U. after   10 cycles
            NFock= 10  Conv=0.28D-08     -V/T= 2.0016
 KE= 1.518880095935D+02 PE=-4.354887038140D+02 EE= 9.436284040638D+01
 Leave Link  502 at Mon Feb 28 12:39:01 2022, MaxMem= 26843545600 cpu:             873.9 elap:             331.5
 (Enter /sw/contrib/gaussian/gdv/J14p/gdv/l601.exe)
 Copying SCF densities to generalized density rwf, IOpCl= 0 IROHF=0.

 **********************************************************************

            Population analysis using the SCF Density.

 **********************************************************************

 Alpha  occ. eigenvalues --      -20.56417     -20.56417      -1.35349      -1.34291      -0.73266
 Alpha  occ. eigenvalues --       -0.70072      -0.58835      -0.57425      -0.51051      -0.50626
 Alpha virt. eigenvalues --        0.02969       0.04062       0.05501       0.06951       0.12797
 Alpha virt. eigenvalues --        0.14642       0.16502       0.16620       0.18343       0.19841
 Alpha virt. eigenvalues --        0.21303       0.23440       0.24731       0.24825       0.26042
 Alpha virt. eigenvalues --        0.26265       0.32249       0.33647       0.34205       0.37399
 Alpha virt. eigenvalues --        0.39136       0.41269       0.42323       0.43497       0.45669
 Alpha virt. eigenvalues --        0.45920       0.48856       0.50625       0.62870       0.63128
 Alpha virt. eigenvalues --        0.68150       0.68849       0.71741       0.71830       0.75542
 Alpha virt. eigenvalues --        0.76355       0.77615       0.78694       0.84574       0.85262
 Alpha virt. eigenvalues --        0.89051       0.89565       0.90406       0.90482       0.94088
 Alpha virt. eigenvalues --        0.94666       0.97832       0.98112       1.02184       1.02929
 Alpha virt. eigenvalues --        1.03665       1.05089       1.05249       1.06473       1.08423
 Alpha virt. eigenvalues --        1.10568       1.11351       1.14243       1.19602       1.24210
 Alpha virt. eigenvalues --        1.24768       1.26924       1.29038       1.30211       1.35129
 Alpha virt. eigenvalues --        1.36753       1.50583       1.53433       1.58720       1.60005
 Alpha virt. eigenvalues --        1.63391       1.66041       1.68995       1.71749       1.83329
 Alpha virt. eigenvalues --        1.83674       1.88800       1.91438       1.99910       2.06031
 Alpha virt. eigenvalues --        2.11984       2.22270       2.30254       2.33385       2.35609
 Alpha virt. eigenvalues --        2.35895       2.37254       2.43951       2.46255       2.47413
 Alpha virt. eigenvalues --        2.48507       2.49631       2.51144       2.55532       2.60486
 Alpha virt. eigenvalues --        2.61750       2.69950       2.76414       2.76716       2.81905
 Alpha virt. eigenvalues --        2.85893       2.89571       2.89620       2.91585       2.96547
 Alpha virt. eigenvalues --        3.08136       3.67169       3.79200       3.80608       3.85917
 Alpha virt. eigenvalues --        4.04686       4.06547       4.19608       4.20406       4.22613
 Alpha virt. eigenvalues --        4.25474       4.25534       4.29311       4.33557       4.40091
 Alpha virt. eigenvalues --        4.41341       4.44403       4.49242       4.52332       4.52358
 Alpha virt. eigenvalues --        4.56031       4.66534       4.71878       4.75358       4.80505
 Alpha virt. eigenvalues --        4.91134       4.93937       5.17655       5.19118       5.19167
 Alpha virt. eigenvalues --        5.23275       5.30913       5.31400       5.35941       5.39680
 Alpha virt. eigenvalues --        5.53784       5.55005       5.73351       5.75261       6.19015
 Alpha virt. eigenvalues --        6.21646       6.53202       6.58891       6.73911       6.80672
 Alpha virt. eigenvalues --        6.90124       6.90294       7.14422       7.18763       7.31063
 Alpha virt. eigenvalues --        7.31082       7.31852       7.33214       7.33596       7.35524
 Alpha virt. eigenvalues --        7.37350       7.38799       7.42039       7.44840       7.58561
 Alpha virt. eigenvalues --        7.75929       7.89740       7.94249       7.95564       8.06721
 Alpha virt. eigenvalues --        8.82596       8.83569      15.76393      15.98411
     Molecular Orbital Coefficients:
                           1         2         3         4         5
                           O         O         O         O         O
     Eigenvalues --   -20.56417 -20.56417  -1.35349  -1.34291  -0.73266
   1 1   O  1S          0.69062   0.69061  -0.14193  -0.14335   0.00233
   2        2S         -0.00636  -0.00643   0.34338   0.34725  -0.00552
   3        3S          0.03088   0.03085   0.09331   0.09455  -0.00163
   4        4S         -0.00060   0.00073   0.20764   0.20967   0.00432
   5        5S         -0.00119   0.00085   0.02512   0.02493  -0.00026
   6        6PX         0.00075   0.00074   0.01907   0.01747   0.14762
   7        6PY         0.00096   0.00095   0.02147   0.02309  -0.10093
   8        6PZ         0.00037   0.00037   0.00714   0.00989  -0.08443
   9        7PX        -0.00063  -0.00062   0.02742   0.02561   0.17661
  10        7PY        -0.00091  -0.00076   0.03055   0.03255  -0.12071
  11        7PZ        -0.00035  -0.00027   0.01029   0.01395  -0.10222
  12        8PX         0.00001   0.00019   0.00842   0.01007   0.07951
  13        8PY        -0.00074   0.00003   0.00569   0.00218  -0.05348
  14        8PZ        -0.00052  -0.00037  -0.00037  -0.00325  -0.04813
  15        9PX        -0.00029   0.00015   0.00198   0.00083   0.00467
  16        9PY         0.00007   0.00016   0.00138   0.00057  -0.00447
  17        9PZ         0.00034  -0.00018   0.00053  -0.00056  -0.00233
  18       10D 0       -0.00003  -0.00003  -0.00163  -0.00167  -0.00135
  19       10D+1       -0.00002  -0.00002  -0.00088  -0.00079  -0.00013
  20       10D-1        0.00004   0.00003   0.00170   0.00176  -0.00371
  21       10D+2        0.00002   0.00001   0.00067   0.00055   0.00725
  22       10D-2       -0.00002  -0.00001  -0.00051  -0.00051   0.00228
  23       11D 0        0.00024   0.00021  -0.00405  -0.00438  -0.00205
  24       11D+1        0.00017   0.00010  -0.00180  -0.00143  -0.00024
  25       11D-1       -0.00035  -0.00025   0.00427   0.00393  -0.00665
  26       11D+2       -0.00007  -0.00007   0.00168   0.00155   0.01319
  27       11D-2        0.00014   0.00009  -0.00040  -0.00027   0.00407
  28       12D 0        0.00012   0.00010   0.00255   0.00233  -0.00009
  29       12D+1       -0.00014  -0.00010   0.00063   0.00040  -0.00069
  30       12D-1        0.00004   0.00020  -0.00074  -0.00223   0.00140
  31       12D+2        0.00012  -0.00011  -0.00060   0.00074  -0.00112
  32       12D-2       -0.00002  -0.00005   0.00136   0.00119  -0.00124
  33       13F 0        0.00001   0.00001  -0.00041  -0.00044   0.00121
  34       13F+1       -0.00001  -0.00002  -0.00076  -0.00088  -0.00054
  35       13F-1        0.00001   0.00000  -0.00006   0.00006  -0.00006
  36       13F+2        0.00001  -0.00002  -0.00101  -0.00098   0.00005
  37       13F-2       -0.00001  -0.00002  -0.00038  -0.00047   0.00131
  38       13F+3        0.00001   0.00002   0.00140   0.00142   0.00006
  39       13F-3       -0.00000  -0.00000  -0.00026  -0.00023  -0.00050
  40       14F 0        0.00003   0.00002  -0.00032  -0.00027   0.00082
  41       14F+1        0.00008   0.00012  -0.00014   0.00017  -0.00110
  42       14F-1       -0.00004  -0.00003  -0.00019  -0.00069  -0.00013
  43       14F+2        0.00006   0.00006  -0.00016  -0.00012   0.00096
  44       14F-2        0.00007   0.00010   0.00023   0.00051   0.00015
  45       14F+3       -0.00013  -0.00012  -0.00008  -0.00016   0.00067
  46       14F-3        0.00002  -0.00000   0.00017   0.00002   0.00090
  47 2   H  1S          0.00034   0.00035   0.06217   0.06032   0.09345
  48        2S          0.00095   0.00082   0.05192   0.04713   0.14540
  49        3S          0.00046  -0.00044  -0.01300  -0.01564   0.01967
  50        4S         -0.00004  -0.00004  -0.00096  -0.00156  -0.00507
  51        5PX        -0.00015  -0.00011  -0.00897  -0.00906  -0.01024
  52        5PY        -0.00000   0.00000  -0.00006   0.00014  -0.00297
  53        5PZ         0.00003  -0.00001   0.00089   0.00144  -0.00085
  54        6PX        -0.00065  -0.00058  -0.00640  -0.00599  -0.02120
  55        6PY         0.00001   0.00001   0.00025   0.00102  -0.00695
  56        6PZ         0.00011   0.00019   0.00125   0.00200  -0.00360
  57        7PX        -0.00025  -0.00045   0.00419   0.00817   0.00445
  58        7PY         0.00015   0.00032   0.00138   0.00029  -0.00258
  59        7PZ         0.00039   0.00047   0.00057   0.00021  -0.00073
  60        8D 0        0.00005   0.00006  -0.00079  -0.00078  -0.00238
  61        8D+1        0.00001  -0.00002  -0.00031  -0.00023   0.00015
  62        8D-1        0.00001   0.00000  -0.00009  -0.00014   0.00004
  63        8D+2       -0.00007  -0.00009   0.00145   0.00135   0.00394
  64        8D-2       -0.00003  -0.00004   0.00011   0.00009   0.00146
  65        9D 0       -0.00010  -0.00035   0.00007   0.00112   0.00039
  66        9D+1       -0.00022   0.00002   0.00048  -0.00056   0.00094
  67        9D-1        0.00001  -0.00014  -0.00042   0.00085   0.00075
  68        9D+2        0.00028   0.00029  -0.00065  -0.00102   0.00059
  69        9D-2       -0.00003   0.00001  -0.00000  -0.00055   0.00160
  70 3   H  1S          0.00034   0.00036   0.06087   0.06296  -0.10068
  71        2S          0.00178   0.00067   0.05383   0.06173  -0.16228
  72        3S          0.00029  -0.00075  -0.00958  -0.00411  -0.02336
  73        4S         -0.00003   0.00005  -0.00075  -0.00097   0.00521
  74        5PX         0.00004   0.00004   0.00276   0.00282  -0.00038
  75        5PY        -0.00015  -0.00010  -0.00753  -0.00790   0.01024
  76        5PZ        -0.00006  -0.00006  -0.00418  -0.00423   0.00489
  77        6PX         0.00024   0.00008   0.00226   0.00257   0.00027
  78        6PY        -0.00082  -0.00058  -0.00597  -0.00763   0.02243
  79        6PZ        -0.00050  -0.00022  -0.00361  -0.00366   0.00995
  80        7PX         0.00010  -0.00014  -0.00162   0.00015   0.00421
  81        7PY        -0.00007  -0.00011   0.00355   0.00309  -0.00234
  82        7PZ        -0.00031   0.00003   0.00149   0.00165  -0.00367
  83        8D 0        0.00000   0.00001  -0.00024  -0.00034   0.00108
  84        8D+1        0.00000   0.00001  -0.00037  -0.00038   0.00063
  85        8D-1       -0.00004  -0.00008   0.00114   0.00120  -0.00350
  86        8D+2        0.00003   0.00006  -0.00103  -0.00120   0.00331
  87        8D-2        0.00001   0.00003  -0.00072  -0.00076   0.00103
  88        9D 0       -0.00001  -0.00011   0.00000  -0.00002   0.00042
  89        9D+1       -0.00009  -0.00002   0.00025   0.00013  -0.00147
  90        9D-1        0.00023   0.00023  -0.00029  -0.00098  -0.00035
  91        9D+2       -0.00018  -0.00022   0.00055   0.00043   0.00186
  92        9D-2       -0.00012  -0.00011   0.00036   0.00046  -0.00092
  93 4   H  1S         -0.00034   0.00035   0.06217  -0.06032   0.09345
  94        2S         -0.00095   0.00082   0.05192  -0.04713   0.14540
  95        3S         -0.00046  -0.00044  -0.01300   0.01564   0.01967
  96        4S          0.00004  -0.00004  -0.00096   0.00156  -0.00507
  97        5PX        -0.00015   0.00011   0.00897  -0.00906   0.01024
  98        5PY        -0.00000  -0.00000   0.00006   0.00014   0.00297
  99        5PZ         0.00003   0.00001  -0.00089   0.00144   0.00085
 100        6PX        -0.00065   0.00058   0.00640  -0.00599   0.02120
 101        6PY         0.00001  -0.00001  -0.00025   0.00102   0.00695
 102        6PZ         0.00011  -0.00019  -0.00125   0.00200   0.00360
 103        7PX        -0.00025   0.00045  -0.00419   0.00817  -0.00445
 104        7PY         0.00015  -0.00032  -0.00138   0.00029   0.00258
 105        7PZ         0.00039  -0.00047  -0.00057   0.00021   0.00073
 106        8D 0       -0.00005   0.00006  -0.00079   0.00078  -0.00238
 107        8D+1       -0.00001  -0.00002  -0.00031   0.00023   0.00015
 108        8D-1       -0.00001   0.00000  -0.00009   0.00014   0.00004
 109        8D+2        0.00007  -0.00009   0.00145  -0.00135   0.00394
 110        8D-2        0.00003  -0.00004   0.00011  -0.00009   0.00146
 111        9D 0        0.00010  -0.00035   0.00007  -0.00112   0.00039
 112        9D+1        0.00022   0.00002   0.00048   0.00056   0.00094
 113        9D-1       -0.00001  -0.00014  -0.00042  -0.00085   0.00075
 114        9D+2       -0.00028   0.00029  -0.00065   0.00102   0.00059
 115        9D-2        0.00003   0.00001  -0.00000   0.00055   0.00160
 116 5   O  1S         -0.69062   0.69061  -0.14193   0.14335   0.00233
 117        2S          0.00636  -0.00643   0.34338  -0.34725  -0.00552
 118        3S         -0.03088   0.03085   0.09331  -0.09455  -0.00163
 119        4S          0.00060   0.00073   0.20764  -0.20967   0.00432
 120        5S          0.00119   0.00085   0.02512  -0.02493  -0.00026
 121        6PX         0.00075  -0.00074  -0.01907   0.01747  -0.14762
 122        6PY         0.00096  -0.00095  -0.02147   0.02309   0.10093
 123        6PZ         0.00037  -0.00037  -0.00714   0.00989   0.08443
 124        7PX        -0.00063   0.00062  -0.02742   0.02561  -0.17661
 125        7PY        -0.00091   0.00076  -0.03055   0.03255   0.12071
 126        7PZ        -0.00035   0.00027  -0.01029   0.01395   0.10222
 127        8PX         0.00001  -0.00019  -0.00842   0.01007  -0.07951
 128        8PY        -0.00074  -0.00003  -0.00569   0.00218   0.05348
 129        8PZ        -0.00052   0.00037   0.00037  -0.00325   0.04813
 130        9PX        -0.00029  -0.00015  -0.00198   0.00083  -0.00467
 131        9PY         0.00007  -0.00016  -0.00138   0.00057   0.00447
 132        9PZ         0.00034   0.00018  -0.00053  -0.00056   0.00233
 133       10D 0        0.00003  -0.00003  -0.00163   0.00167  -0.00135
 134       10D+1        0.00002  -0.00002  -0.00088   0.00079  -0.00013
 135       10D-1       -0.00004   0.00003   0.00170  -0.00176  -0.00371
 136       10D+2       -0.00002   0.00001   0.00067  -0.00055   0.00725
 137       10D-2        0.00002  -0.00001  -0.00051   0.00051   0.00228
 138       11D 0       -0.00024   0.00021  -0.00405   0.00438  -0.00205
 139       11D+1       -0.00017   0.00010  -0.00180   0.00143  -0.00024
 140       11D-1        0.00035  -0.00025   0.00427  -0.00393  -0.00665
 141       11D+2        0.00007  -0.00007   0.00168  -0.00155   0.01319
 142       11D-2       -0.00014   0.00009  -0.00040   0.00027   0.00407
 143       12D 0       -0.00012   0.00010   0.00255  -0.00233  -0.00009
 144       12D+1        0.00014  -0.00010   0.00063  -0.00040  -0.00069
 145       12D-1       -0.00004   0.00020  -0.00074   0.00223   0.00140
 146       12D+2       -0.00012  -0.00011  -0.00060  -0.00074  -0.00112
 147       12D-2        0.00002  -0.00005   0.00136  -0.00119  -0.00124
 148       13F 0        0.00001  -0.00001   0.00041  -0.00044  -0.00121
 149       13F+1       -0.00001   0.00002   0.00076  -0.00088   0.00054
 150       13F-1        0.00001  -0.00000   0.00006   0.00006   0.00006
 151       13F+2        0.00001   0.00002   0.00101  -0.00098  -0.00005
 152       13F-2       -0.00001   0.00002   0.00038  -0.00047  -0.00131
 153       13F+3        0.00001  -0.00002  -0.00140   0.00142  -0.00006
 154       13F-3       -0.00000   0.00000   0.00026  -0.00023   0.00050
 155       14F 0        0.00003  -0.00002   0.00032  -0.00027  -0.00082
 156       14F+1        0.00008  -0.00012   0.00014   0.00017   0.00110
 157       14F-1       -0.00004   0.00003   0.00019  -0.00069   0.00013
 158       14F+2        0.00006  -0.00006   0.00016  -0.00012  -0.00096
 159       14F-2        0.00007  -0.00010  -0.00023   0.00051  -0.00015
 160       14F+3       -0.00013   0.00012   0.00008  -0.00016  -0.00067
 161       14F-3        0.00002   0.00000  -0.00017   0.00002  -0.00090
 162 6   H  1S         -0.00034   0.00036   0.06087  -0.06296  -0.10068
 163        2S         -0.00178   0.00067   0.05383  -0.06173  -0.16228
 164        3S         -0.00029  -0.00075  -0.00958   0.00411  -0.02336
 165        4S          0.00003   0.00005  -0.00075   0.00097   0.00521
 166        5PX         0.00004  -0.00004  -0.00276   0.00282   0.00038
 167        5PY        -0.00015   0.00010   0.00753  -0.00790  -0.01024
 168        5PZ        -0.00006   0.00006   0.00418  -0.00423  -0.00489
 169        6PX         0.00024  -0.00008  -0.00226   0.00257  -0.00027
 170        6PY        -0.00082   0.00058   0.00597  -0.00763  -0.02243
 171        6PZ        -0.00050   0.00022   0.00361  -0.00366  -0.00995
 172        7PX         0.00010   0.00014   0.00162   0.00015  -0.00421
 173        7PY        -0.00007   0.00011  -0.00355   0.00309   0.00234
 174        7PZ        -0.00031  -0.00003  -0.00149   0.00165   0.00367
 175        8D 0       -0.00000   0.00001  -0.00024   0.00034   0.00108
 176        8D+1       -0.00000   0.00001  -0.00037   0.00038   0.00063
 177        8D-1        0.00004  -0.00008   0.00114  -0.00120  -0.00350
 178        8D+2       -0.00003   0.00006  -0.00103   0.00120   0.00331
 179        8D-2       -0.00001   0.00003  -0.00072   0.00076   0.00103
 180        9D 0        0.00001  -0.00011   0.00000   0.00002   0.00042
 181        9D+1        0.00009  -0.00002   0.00025  -0.00013  -0.00147
 182        9D-1       -0.00023   0.00023  -0.00029   0.00098  -0.00035
 183        9D+2        0.00018  -0.00022   0.00055  -0.00043   0.00186
 184        9D-2        0.00012  -0.00011   0.00036  -0.00046  -0.00092
                           6         7         8         9        10
                           O         O         O         O         O
     Eigenvalues --    -0.70072  -0.58835  -0.57425  -0.51051  -0.50626
   1 1   O  1S         -0.00337  -0.04470  -0.04320  -0.00412   0.00296
   2        2S          0.00822   0.12052   0.11679   0.01092  -0.00766
   3        3S          0.00243   0.03567   0.03481   0.00309  -0.00241
   4        4S          0.00732   0.23417   0.22744   0.02379   0.01029
   5        5S          0.00654   0.06861   0.05455   0.00613   0.01884
   6        6PX         0.16702  -0.12589  -0.14635   0.03874   0.01183
   7        6PY        -0.10278  -0.16518  -0.15716  -0.12304  -0.10530
   8        6PZ        -0.05882  -0.06838  -0.06515   0.21406   0.22704
   9        7PX         0.20016  -0.15470  -0.17913   0.04772   0.01541
  10        7PY        -0.12253  -0.20235  -0.19285  -0.15444  -0.13326
  11        7PZ        -0.06881  -0.08405  -0.08004   0.27269   0.28807
  12        8PX         0.09787  -0.08960  -0.10205   0.03423   0.00746
  13        8PY        -0.05965  -0.10951  -0.11400  -0.10334  -0.08095
  14        8PZ        -0.03255  -0.04468  -0.05079   0.20622   0.22866
  15        9PX         0.00686  -0.00138  -0.00744   0.00313   0.00551
  16        9PY        -0.00447  -0.00874  -0.01230  -0.01078  -0.00766
  17        9PZ        -0.00419  -0.00644  -0.00460   0.02405   0.02416
  18       10D 0       -0.00176   0.00289   0.00298   0.00163   0.00184
  19       10D+1        0.00044  -0.00013  -0.00033   0.00231   0.00197
  20       10D-1       -0.00352  -0.00303  -0.00282   0.00159   0.00235
  21       10D+2        0.00763   0.00015  -0.00043   0.00213   0.00101
  22       10D-2        0.00254  -0.00195  -0.00224  -0.00045  -0.00107
  23       11D 0       -0.00364   0.00454   0.00449   0.00390   0.00470
  24       11D+1        0.00073  -0.00273  -0.00319   0.00531   0.00498
  25       11D-1       -0.00656  -0.00407  -0.00464   0.00505   0.00736
  26       11D+2        0.01418   0.00162   0.00107   0.00439   0.00178
  27       11D-2        0.00461  -0.00801  -0.00835  -0.00177  -0.00296
  28       12D 0        0.00012  -0.00309  -0.00020  -0.00481  -0.00461
  29       12D+1       -0.00117  -0.00283  -0.00252   0.00140   0.00758
  30       12D-1        0.00078   0.00669   0.00512   0.00097   0.00538
  31       12D+2        0.00017   0.00005   0.00178   0.00181  -0.00558
  32       12D-2       -0.00010  -0.00467  -0.00385  -0.00107   0.00025
  33       13F 0        0.00116   0.00091   0.00092  -0.00100  -0.00111
  34       13F+1       -0.00109   0.00099   0.00102  -0.00105  -0.00074
  35       13F-1        0.00032   0.00031   0.00037   0.00202   0.00188
  36       13F+2        0.00003   0.00119   0.00106   0.00094   0.00082
  37       13F-2        0.00110  -0.00010  -0.00027  -0.00003  -0.00013
  38       13F+3        0.00025  -0.00081  -0.00076  -0.00024  -0.00025
  39       13F-3       -0.00056  -0.00009  -0.00003  -0.00040  -0.00042
  40       14F 0        0.00112   0.00016  -0.00006   0.00024  -0.00065
  41       14F+1       -0.00036  -0.00016   0.00048  -0.00070  -0.00105
  42       14F-1       -0.00075  -0.00025  -0.00055   0.00100   0.00151
  43       14F+2        0.00049  -0.00012   0.00037   0.00016   0.00092
  44       14F-2        0.00118  -0.00052  -0.00033   0.00007  -0.00011
  45       14F+3        0.00068   0.00104   0.00060   0.00050  -0.00022
  46       14F-3        0.00068  -0.00043  -0.00047  -0.00030   0.00010
  47 2   H  1S          0.10197  -0.05603  -0.06312   0.00559  -0.00674
  48        2S          0.15785  -0.11753  -0.12961   0.00323  -0.00116
  49        3S          0.01888  -0.04264  -0.05172   0.00758  -0.02824
  50        4S         -0.00275   0.00117  -0.00432   0.00136  -0.00915
  51        5PX        -0.01123   0.00386   0.00556  -0.00031   0.00203
  52        5PY        -0.00286  -0.00430  -0.00414  -0.00331  -0.00334
  53        5PZ         0.00079  -0.00249  -0.00322   0.00692   0.00617
  54        6PX        -0.02476   0.01776   0.02318  -0.00109   0.00491
  55        6PY        -0.00592  -0.01124  -0.01035  -0.00877  -0.01242
  56        6PZ         0.00313  -0.00744  -0.00946   0.01820   0.01232
  57        7PX         0.00602  -0.00312   0.00435   0.00090   0.01062
  58        7PY        -0.00272  -0.00451  -0.00707  -0.00531  -0.00605
  59        7PZ        -0.00096  -0.00403  -0.00426   0.00703   0.00807
  60        8D 0       -0.00279   0.00083   0.00127   0.00037   0.00084
  61        8D+1       -0.00072   0.00121   0.00127  -0.00288  -0.00260
  62        8D-1       -0.00013  -0.00022  -0.00031  -0.00039   0.00002
  63        8D+2        0.00429  -0.00179  -0.00229   0.00011  -0.00066
  64        8D-2        0.00131   0.00153   0.00141   0.00159   0.00146
  65        9D 0       -0.00031   0.00057  -0.00129   0.00221   0.00008
  66        9D+1        0.00120   0.00255   0.00137  -0.00633  -0.00170
  67        9D-1       -0.00135  -0.00260  -0.00193   0.00084  -0.00350
  68        9D+2        0.00122   0.00028   0.00040   0.00027  -0.00018
  69        9D-2        0.00261   0.00297   0.00216   0.00206   0.00379
  70 3   H  1S         -0.09736  -0.06310  -0.05525  -0.00845   0.00839
  71        2S         -0.15430  -0.13781  -0.11642  -0.02693  -0.00964
  72        3S         -0.02375  -0.05220  -0.03010  -0.01388  -0.00400
  73        4S          0.00324  -0.00087   0.00211  -0.00175   0.00204
  74        5PX         0.00029  -0.00595  -0.00616   0.00082   0.00059
  75        5PY         0.00956   0.00304   0.00214  -0.00239  -0.00361
  76        5PZ         0.00536   0.00240   0.00196   0.00694   0.00626
  77        6PX         0.00205  -0.01753  -0.01821   0.00054  -0.00057
  78        6PY         0.02023   0.01426   0.01039  -0.00481  -0.00662
  79        6PZ         0.01173   0.00938   0.00730   0.02241   0.02126
  80        7PX         0.00540  -0.00832  -0.00452   0.00146   0.00098
  81        7PY        -0.00342  -0.00186  -0.00442  -0.00430  -0.00557
  82        7PZ        -0.00138   0.00120  -0.00231   0.01286   0.01321
  83        8D 0        0.00079   0.00055   0.00047  -0.00231  -0.00232
  84        8D+1        0.00041   0.00134   0.00137   0.00075   0.00081
  85        8D-1       -0.00381  -0.00151  -0.00118  -0.00232  -0.00174
  86        8D+2        0.00322   0.00047   0.00000  -0.00066  -0.00114
  87        8D-2        0.00084   0.00228   0.00227  -0.00038  -0.00054
  88        9D 0       -0.00061   0.00053   0.00042  -0.00302  -0.00387
  89        9D+1       -0.00031   0.00127   0.00117   0.00109   0.00059
  90        9D-1       -0.00159   0.00003  -0.00016  -0.00320  -0.00243
  91        9D+2        0.00201  -0.00195  -0.00167  -0.00215  -0.00184
  92        9D-2       -0.00086   0.00135   0.00134  -0.00132  -0.00105
  93 4   H  1S         -0.10197   0.05603  -0.06312   0.00559   0.00674
  94        2S         -0.15785   0.11753  -0.12961   0.00323   0.00116
  95        3S         -0.01888   0.04264  -0.05172   0.00758   0.02824
  96        4S          0.00275  -0.00117  -0.00432   0.00136   0.00915
  97        5PX        -0.01123   0.00386  -0.00556   0.00031   0.00203
  98        5PY        -0.00286  -0.00430   0.00414   0.00331  -0.00334
  99        5PZ         0.00079  -0.00249   0.00322  -0.00692   0.00617
 100        6PX        -0.02476   0.01776  -0.02318   0.00109   0.00491
 101        6PY        -0.00592  -0.01124   0.01035   0.00877  -0.01242
 102        6PZ         0.00313  -0.00744   0.00946  -0.01820   0.01232
 103        7PX         0.00602  -0.00312  -0.00435  -0.00090   0.01062
 104        7PY        -0.00272  -0.00451   0.00707   0.00531  -0.00605
 105        7PZ        -0.00096  -0.00403   0.00426  -0.00703   0.00807
 106        8D 0        0.00279  -0.00083   0.00127   0.00037  -0.00084
 107        8D+1        0.00072  -0.00121   0.00127  -0.00288   0.00260
 108        8D-1        0.00013   0.00022  -0.00031  -0.00039  -0.00002
 109        8D+2       -0.00429   0.00179  -0.00229   0.00011   0.00066
 110        8D-2       -0.00131  -0.00153   0.00141   0.00159  -0.00146
 111        9D 0        0.00031  -0.00057  -0.00129   0.00221  -0.00008
 112        9D+1       -0.00120  -0.00255   0.00137  -0.00633   0.00170
 113        9D-1        0.00135   0.00260  -0.00193   0.00084   0.00350
 114        9D+2       -0.00122  -0.00028   0.00040   0.00027   0.00018
 115        9D-2       -0.00261  -0.00297   0.00216   0.00206  -0.00379
 116 5   O  1S          0.00337   0.04470  -0.04320  -0.00412  -0.00296
 117        2S         -0.00822  -0.12052   0.11679   0.01092   0.00766
 118        3S         -0.00243  -0.03567   0.03481   0.00309   0.00241
 119        4S         -0.00732  -0.23417   0.22744   0.02379  -0.01029
 120        5S         -0.00654  -0.06861   0.05455   0.00613  -0.01884
 121        6PX         0.16702  -0.12589   0.14635  -0.03874   0.01183
 122        6PY        -0.10278  -0.16518   0.15716   0.12304  -0.10530
 123        6PZ        -0.05882  -0.06838   0.06515  -0.21406   0.22704
 124        7PX         0.20016  -0.15470   0.17913  -0.04772   0.01541
 125        7PY        -0.12253  -0.20235   0.19285   0.15444  -0.13326
 126        7PZ        -0.06881  -0.08405   0.08004  -0.27269   0.28807
 127        8PX         0.09787  -0.08960   0.10205  -0.03423   0.00746
 128        8PY        -0.05965  -0.10951   0.11400   0.10334  -0.08095
 129        8PZ        -0.03255  -0.04468   0.05079  -0.20622   0.22866
 130        9PX         0.00686  -0.00138   0.00744  -0.00313   0.00551
 131        9PY        -0.00447  -0.00874   0.01230   0.01078  -0.00766
 132        9PZ        -0.00419  -0.00644   0.00460  -0.02405   0.02416
 133       10D 0        0.00176  -0.00289   0.00298   0.00163  -0.00184
 134       10D+1       -0.00044   0.00013  -0.00033   0.00231  -0.00197
 135       10D-1        0.00352   0.00303  -0.00282   0.00159  -0.00235
 136       10D+2       -0.00763  -0.00015  -0.00043   0.00213  -0.00101
 137       10D-2       -0.00254   0.00195  -0.00224  -0.00045   0.00107
 138       11D 0        0.00364  -0.00454   0.00449   0.00390  -0.00470
 139       11D+1       -0.00073   0.00273  -0.00319   0.00531  -0.00498
 140       11D-1        0.00656   0.00407  -0.00464   0.00505  -0.00736
 141       11D+2       -0.01418  -0.00162   0.00107   0.00439  -0.00178
 142       11D-2       -0.00461   0.00801  -0.00835  -0.00177   0.00296
 143       12D 0       -0.00012   0.00309  -0.00020  -0.00481   0.00461
 144       12D+1        0.00117   0.00283  -0.00252   0.00140  -0.00758
 145       12D-1       -0.00078  -0.00669   0.00512   0.00097  -0.00538
 146       12D+2       -0.00017  -0.00005   0.00178   0.00181   0.00558
 147       12D-2        0.00010   0.00467  -0.00385  -0.00107  -0.00025
 148       13F 0        0.00116   0.00091  -0.00092   0.00100  -0.00111
 149       13F+1       -0.00109   0.00099  -0.00102   0.00105  -0.00074
 150       13F-1        0.00032   0.00031  -0.00037  -0.00202   0.00188
 151       13F+2        0.00003   0.00119  -0.00106  -0.00094   0.00082
 152       13F-2        0.00110  -0.00010   0.00027   0.00003  -0.00013
 153       13F+3        0.00025  -0.00081   0.00076   0.00024  -0.00025
 154       13F-3       -0.00056  -0.00009   0.00003   0.00040  -0.00042
 155       14F 0        0.00112   0.00016   0.00006  -0.00024  -0.00065
 156       14F+1       -0.00036  -0.00016  -0.00048   0.00070  -0.00105
 157       14F-1       -0.00075  -0.00025   0.00055  -0.00100   0.00151
 158       14F+2        0.00049  -0.00012  -0.00037  -0.00016   0.00092
 159       14F-2        0.00118  -0.00052   0.00033  -0.00007  -0.00011
 160       14F+3        0.00068   0.00104  -0.00060  -0.00050  -0.00022
 161       14F-3        0.00068  -0.00043   0.00047   0.00030   0.00010
 162 6   H  1S          0.09736   0.06310  -0.05525  -0.00845  -0.00839
 163        2S          0.15430   0.13781  -0.11642  -0.02693   0.00964
 164        3S          0.02375   0.05220  -0.03010  -0.01388   0.00400
 165        4S         -0.00324   0.00087   0.00211  -0.00175  -0.00204
 166        5PX         0.00029  -0.00595   0.00616  -0.00082   0.00059
 167        5PY         0.00956   0.00304  -0.00214   0.00239  -0.00361
 168        5PZ         0.00536   0.00240  -0.00196  -0.00694   0.00626
 169        6PX         0.00205  -0.01753   0.01821  -0.00054  -0.00057
 170        6PY         0.02023   0.01426  -0.01039   0.00481  -0.00662
 171        6PZ         0.01173   0.00938  -0.00730  -0.02241   0.02126
 172        7PX         0.00540  -0.00832   0.00452  -0.00146   0.00098
 173        7PY        -0.00342  -0.00186   0.00442   0.00430  -0.00557
 174        7PZ        -0.00138   0.00120   0.00231  -0.01286   0.01321
 175        8D 0       -0.00079  -0.00055   0.00047  -0.00231   0.00232
 176        8D+1       -0.00041  -0.00134   0.00137   0.00075  -0.00081
 177        8D-1        0.00381   0.00151  -0.00118  -0.00232   0.00174
 178        8D+2       -0.00322  -0.00047   0.00000  -0.00066   0.00114
 179        8D-2       -0.00084  -0.00228   0.00227  -0.00038   0.00054
 180        9D 0        0.00061  -0.00053   0.00042  -0.00302   0.00387
 181        9D+1        0.00031  -0.00127   0.00117   0.00109  -0.00059
 182        9D-1        0.00159  -0.00003  -0.00016  -0.00320   0.00243
 183        9D+2       -0.00201   0.00195  -0.00167  -0.00215   0.00184
 184        9D-2        0.00086  -0.00135   0.00134  -0.00132   0.00105
                          11        12        13        14        15
                           V         V         V         V         V
     Eigenvalues --     0.02969   0.04062   0.05501   0.06951   0.12797
   1 1   O  1S         -0.01780   0.00957   0.00112   0.00924  -0.00639
   2        2S          0.04481  -0.02269   0.00224  -0.01966   0.01174
   3        3S          0.01106  -0.00556   0.00168  -0.00433  -0.00028
   4        4S          0.51830  -0.34083  -0.33640  -0.26197   0.87198
   5        5S          1.75838  -1.01858  -1.32441  -0.91813   4.44781
   6        6PX         0.00561   0.00281  -0.02009  -0.01305  -0.01919
   7        6PY         0.01480  -0.01956  -0.00165   0.00641  -0.04556
   8        6PZ         0.00551  -0.01472  -0.01750   0.00707   0.02160
   9        7PX         0.01271   0.00730  -0.04574  -0.04435  -0.00399
  10        7PY         0.03969  -0.04429  -0.00623   0.01284  -0.02845
  11        7PZ         0.01768  -0.02972  -0.02216   0.01039   0.03118
  12        8PX         0.00713   0.18091  -0.24923  -0.36244   0.27039
  13        8PY         0.22576  -0.21282   0.01413   0.11643   0.51594
  14        8PZ         0.12991  -0.13466  -0.02085   0.19862   0.09072
  15        9PX        -0.07899   0.54330  -0.71686  -0.62424   1.36840
  16        9PY         0.30964  -0.45926   0.06644   0.53468   1.02923
  17        9PZ         0.17483  -0.53553  -0.19952   0.50107  -1.13369
  18       10D 0        0.00023   0.00006   0.00026  -0.00046   0.00103
  19       10D+1        0.00012  -0.00041  -0.00046   0.00003  -0.00060
  20       10D-1       -0.00031  -0.00011  -0.00036  -0.00004  -0.00059
  21       10D+2       -0.00001   0.00015  -0.00016   0.00029  -0.00007
  22       10D-2        0.00022  -0.00021  -0.00009   0.00014  -0.00013
  23       11D 0       -0.00719   0.00104   0.00369   0.01086  -0.01030
  24       11D+1       -0.00443   0.00600   0.00406   0.00684   0.00224
  25       11D-1        0.01208  -0.01159  -0.00107   0.00333   0.01237
  26       11D+2       -0.00399   0.01022  -0.00883  -0.02121   0.00500
  27       11D-2       -0.00460   0.00646  -0.00134  -0.00222  -0.00388
  28       12D 0       -0.00395  -0.02231   0.01281   0.00310  -0.10943
  29       12D+1       -0.01311   0.03530  -0.02256   0.07363   0.02589
  30       12D-1        0.04522  -0.05768  -0.01627   0.00517  -0.03328
  31       12D+2       -0.02664   0.05420  -0.02790  -0.08210  -0.05045
  32       12D-2       -0.02584   0.03980  -0.02151   0.00556   0.16452
  33       13F 0       -0.00007   0.00045   0.00002   0.00017  -0.00110
  34       13F+1       -0.00032   0.00017   0.00048   0.00105  -0.00024
  35       13F-1       -0.00004   0.00029   0.00052   0.00016   0.00171
  36       13F+2       -0.00049   0.00044   0.00031  -0.00032  -0.00026
  37       13F-2       -0.00023   0.00014   0.00063   0.00028  -0.00001
  38       13F+3        0.00067  -0.00071  -0.00095  -0.00086   0.00053
  39       13F-3       -0.00018   0.00055  -0.00007  -0.00024  -0.00127
  40       14F 0       -0.00364   0.00230  -0.00066  -0.00768   0.00171
  41       14F+1       -0.00040  -0.00228   0.00193   0.00103  -0.00457
  42       14F-1        0.00067  -0.00263  -0.00356  -0.00118  -0.00866
  43       14F+2       -0.00450   0.00417   0.00102   0.00766  -0.00312
  44       14F-2       -0.00287   0.00412  -0.00426  -0.00247  -0.00288
  45       14F+3        0.00330   0.00055   0.00080  -0.00553   0.00389
  46       14F-3       -0.00233   0.00021   0.00139   0.00145   0.01021
  47 2   H  1S         -0.00344   0.00487  -0.00438  -0.00188  -0.00383
  48        2S         -0.06098  -0.07783   0.12253   0.26990  -0.24145
  49        3S         -0.28091  -0.18004   1.27830   1.33278  -2.19544
  50        4S          0.36044  -0.32464   4.11824   3.37292  -0.57310
  51        5PX        -0.00202   0.00135   0.00186  -0.00037   0.00061
  52        5PY         0.00065  -0.00034   0.00017   0.00115   0.00414
  53        5PZ         0.00048  -0.00001  -0.00033   0.00226   0.00031
  54        6PX         0.03332   0.00503  -0.07694  -0.11171   0.13740
  55        6PY         0.00039   0.00189  -0.00510  -0.01935  -0.09536
  56        6PZ        -0.00518  -0.01037   0.01147  -0.02764  -0.02971
  57        7PX         0.04385   0.03455  -0.36959  -0.32189   0.66452
  58        7PY         0.04032   0.03044  -0.11851  -0.10972  -0.75342
  59        7PZ         0.01561  -0.07578  -0.02005  -0.20164  -0.46024
  60        8D 0        0.00091   0.00006  -0.00306  -0.00393   0.00353
  61        8D+1       -0.00012   0.00090  -0.00041   0.00069   0.00106
  62        8D-1       -0.00008  -0.00073  -0.00023   0.00003  -0.00240
  63        8D+2       -0.00134   0.00001   0.00341   0.00603  -0.00446
  64        8D-2       -0.00062   0.00092   0.00024   0.00106   0.00135
  65        9D 0        0.00739  -0.00807  -0.00570  -0.00557   0.01548
  66        9D+1        0.00487   0.01370  -0.00192   0.03208   0.05377
  67        9D-1        0.00259   0.01490   0.00919   0.00626   0.00287
  68        9D+2       -0.01484   0.00365   0.03191   0.02541  -0.04339
  69        9D-2       -0.00342  -0.00658   0.01424   0.01599   0.11586
  70 3   H  1S         -0.00149  -0.00373  -0.00065   0.00360  -0.00364
  71        2S         -0.22576   0.21794  -0.00814  -0.07487  -0.25973
  72        3S         -1.16862   1.18642   0.01028  -0.67584  -1.09745
  73        4S         -1.42804   1.80250  -1.57383  -3.18678   0.09111
  74        5PX         0.00078   0.00049  -0.00109   0.00006   0.00267
  75        5PY        -0.00173   0.00208   0.00021  -0.00064   0.00204
  76        5PZ        -0.00047   0.00080   0.00034  -0.00070  -0.00087
  77        6PX        -0.02523   0.00629   0.02343  -0.00493  -0.07542
  78        6PY         0.08048  -0.08381  -0.00543   0.02852   0.08427
  79        6PZ         0.03741  -0.03206   0.00037   0.01968   0.09625
  80        7PX        -0.09489  -0.03192   0.10543  -0.01587  -0.04694
  81        7PY         0.28688  -0.33742   0.02904   0.15167  -0.06380
  82        7PZ         0.12628  -0.04401   0.11648   0.08393   0.62033
  83        8D 0        0.00079  -0.00082   0.00011   0.00093   0.00527
  84        8D+1        0.00118  -0.00089  -0.00027   0.00108   0.00184
  85        8D-1       -0.00346   0.00357   0.00075  -0.00144  -0.00539
  86        8D+2        0.00295  -0.00288  -0.00038   0.00035   0.00218
  87        8D-2        0.00165  -0.00180  -0.00010   0.00085   0.00267
  88        9D 0        0.01117  -0.01452  -0.01332  -0.00123  -0.08247
  89        9D+1        0.00212   0.00754  -0.00284  -0.00361   0.03959
  90        9D-1       -0.01502   0.00971  -0.00848  -0.00923  -0.05079
  91        9D+2        0.01645  -0.03596   0.00633   0.01279  -0.00087
  92        9D-2        0.01326   0.00233  -0.01980   0.00202   0.01828
  93 4   H  1S         -0.00344  -0.00487   0.00438  -0.00188   0.00383
  94        2S         -0.06098   0.07783  -0.12253   0.26990   0.24145
  95        3S         -0.28091   0.18004  -1.27830   1.33278   2.19544
  96        4S          0.36044   0.32464  -4.11824   3.37292   0.57310
  97        5PX         0.00202   0.00135   0.00186   0.00037   0.00061
  98        5PY        -0.00065  -0.00034   0.00017  -0.00115   0.00414
  99        5PZ        -0.00048  -0.00001  -0.00033  -0.00226   0.00031
 100        6PX        -0.03332   0.00503  -0.07694   0.11171   0.13740
 101        6PY        -0.00039   0.00189  -0.00510   0.01935  -0.09536
 102        6PZ         0.00518  -0.01037   0.01147   0.02764  -0.02971
 103        7PX        -0.04385   0.03455  -0.36959   0.32189   0.66452
 104        7PY        -0.04032   0.03044  -0.11851   0.10972  -0.75342
 105        7PZ        -0.01561  -0.07578  -0.02005   0.20164  -0.46024
 106        8D 0        0.00091  -0.00006   0.00306  -0.00393  -0.00353
 107        8D+1       -0.00012  -0.00090   0.00041   0.00069  -0.00106
 108        8D-1       -0.00008   0.00073   0.00023   0.00003   0.00240
 109        8D+2       -0.00134  -0.00001  -0.00341   0.00603   0.00446
 110        8D-2       -0.00062  -0.00092  -0.00024   0.00106  -0.00135
 111        9D 0        0.00739   0.00807   0.00570  -0.00557  -0.01548
 112        9D+1        0.00487  -0.01370   0.00192   0.03208  -0.05377
 113        9D-1        0.00259  -0.01490  -0.00919   0.00626  -0.00287
 114        9D+2       -0.01484  -0.00365  -0.03191   0.02541   0.04339
 115        9D-2       -0.00342   0.00658  -0.01424   0.01599  -0.11586
 116 5   O  1S         -0.01780  -0.00957  -0.00112   0.00924   0.00639
 117        2S          0.04481   0.02269  -0.00224  -0.01966  -0.01174
 118        3S          0.01106   0.00556  -0.00168  -0.00433   0.00028
 119        4S          0.51830   0.34083   0.33640  -0.26197  -0.87198
 120        5S          1.75838   1.01858   1.32441  -0.91813  -4.44781
 121        6PX        -0.00561   0.00281  -0.02009   0.01305  -0.01919
 122        6PY        -0.01480  -0.01956  -0.00165  -0.00641  -0.04556
 123        6PZ        -0.00551  -0.01472  -0.01750  -0.00707   0.02160
 124        7PX        -0.01271   0.00730  -0.04574   0.04435  -0.00399
 125        7PY        -0.03969  -0.04429  -0.00623  -0.01284  -0.02845
 126        7PZ        -0.01768  -0.02972  -0.02216  -0.01039   0.03118
 127        8PX        -0.00713   0.18091  -0.24923   0.36244   0.27039
 128        8PY        -0.22576  -0.21282   0.01413  -0.11643   0.51594
 129        8PZ        -0.12991  -0.13466  -0.02085  -0.19862   0.09072
 130        9PX         0.07899   0.54330  -0.71686   0.62424   1.36840
 131        9PY        -0.30964  -0.45926   0.06644  -0.53468   1.02923
 132        9PZ        -0.17483  -0.53553  -0.19952  -0.50107  -1.13369
 133       10D 0        0.00023  -0.00006  -0.00026  -0.00046  -0.00103
 134       10D+1        0.00012   0.00041   0.00046   0.00003   0.00060
 135       10D-1       -0.00031   0.00011   0.00036  -0.00004   0.00059
 136       10D+2       -0.00001  -0.00015   0.00016   0.00029   0.00007
 137       10D-2        0.00022   0.00021   0.00009   0.00014   0.00013
 138       11D 0       -0.00719  -0.00104  -0.00369   0.01086   0.01030
 139       11D+1       -0.00443  -0.00600  -0.00406   0.00684  -0.00224
 140       11D-1        0.01208   0.01159   0.00107   0.00333  -0.01237
 141       11D+2       -0.00399  -0.01022   0.00883  -0.02121  -0.00500
 142       11D-2       -0.00460  -0.00646   0.00134  -0.00222   0.00388
 143       12D 0       -0.00395   0.02231  -0.01281   0.00310   0.10943
 144       12D+1       -0.01311  -0.03530   0.02256   0.07363  -0.02589
 145       12D-1        0.04522   0.05768   0.01627   0.00517   0.03328
 146       12D+2       -0.02664  -0.05420   0.02790  -0.08210   0.05045
 147       12D-2       -0.02584  -0.03980   0.02151   0.00556  -0.16452
 148       13F 0        0.00007   0.00045   0.00002  -0.00017  -0.00110
 149       13F+1        0.00032   0.00017   0.00048  -0.00105  -0.00024
 150       13F-1        0.00004   0.00029   0.00052  -0.00016   0.00171
 151       13F+2        0.00049   0.00044   0.00031   0.00032  -0.00026
 152       13F-2        0.00023   0.00014   0.00063  -0.00028  -0.00001
 153       13F+3       -0.00067  -0.00071  -0.00095   0.00086   0.00053
 154       13F-3        0.00018   0.00055  -0.00007   0.00024  -0.00127
 155       14F 0        0.00364   0.00230  -0.00066   0.00768   0.00171
 156       14F+1        0.00040  -0.00228   0.00193  -0.00103  -0.00457
 157       14F-1       -0.00067  -0.00263  -0.00356   0.00118  -0.00866
 158       14F+2        0.00450   0.00417   0.00102  -0.00766  -0.00312
 159       14F-2        0.00287   0.00412  -0.00426   0.00247  -0.00288
 160       14F+3       -0.00330   0.00055   0.00080   0.00553   0.00389
 161       14F-3        0.00233   0.00021   0.00139  -0.00145   0.01021
 162 6   H  1S         -0.00149   0.00373   0.00065   0.00360   0.00364
 163        2S         -0.22576  -0.21794   0.00814  -0.07487   0.25973
 164        3S         -1.16862  -1.18642  -0.01028  -0.67584   1.09745
 165        4S         -1.42804  -1.80250   1.57383  -3.18678  -0.09111
 166        5PX        -0.00078   0.00049  -0.00109  -0.00006   0.00267
 167        5PY         0.00173   0.00208   0.00021   0.00064   0.00204
 168        5PZ         0.00047   0.00080   0.00034   0.00070  -0.00087
 169        6PX         0.02523   0.00629   0.02343   0.00493  -0.07542
 170        6PY        -0.08048  -0.08381  -0.00543  -0.02852   0.08427
 171        6PZ        -0.03741  -0.03206   0.00037  -0.01968   0.09625
 172        7PX         0.09489  -0.03192   0.10543   0.01587  -0.04694
 173        7PY        -0.28688  -0.33742   0.02904  -0.15167  -0.06380
 174        7PZ        -0.12628  -0.04401   0.11648  -0.08393   0.62033
 175        8D 0        0.00079   0.00082  -0.00011   0.00093  -0.00527
 176        8D+1        0.00118   0.00089   0.00027   0.00108  -0.00184
 177        8D-1       -0.00346  -0.00357  -0.00075  -0.00144   0.00539
 178        8D+2        0.00295   0.00288   0.00038   0.00035  -0.00218
 179        8D-2        0.00165   0.00180   0.00010   0.00085  -0.00267
 180        9D 0        0.01117   0.01452   0.01332  -0.00123   0.08247
 181        9D+1        0.00212  -0.00754   0.00284  -0.00361  -0.03959
 182        9D-1       -0.01502  -0.00971   0.00848  -0.00923   0.05079
 183        9D+2        0.01645   0.03596  -0.00633   0.01279   0.00087
 184        9D-2        0.01326  -0.00233   0.01980   0.00202  -0.01828
                          16        17        18        19        20
                           V         V         V         V         V
     Eigenvalues --     0.14642   0.16502   0.16620   0.18343   0.19841
   1 1   O  1S          0.02679  -0.02365   0.01119  -0.01799  -0.00363
   2        2S         -0.08388   0.07131  -0.03104   0.04717   0.02452
   3        3S         -0.02951   0.02343  -0.00922   0.02319   0.00920
   4        4S          1.31868  -0.70240  -0.28922  -0.70656  -0.95099
   5        5S          5.73299  -2.06828   0.17272  -0.75701  -4.03663
   6        6PX        -0.02494  -0.01071   0.01749  -0.01735   0.05994
   7        6PY        -0.05013   0.04825  -0.01434  -0.01071   0.00069
   8        6PZ        -0.01246   0.03521   0.03543   0.02900   0.04867
   9        7PX        -0.00598   0.00920  -0.01841  -0.02125   0.02915
  10        7PY        -0.00886   0.00424  -0.00609  -0.04959  -0.01407
  11        7PZ         0.00732   0.00926   0.06271   0.01730   0.05433
  12        8PX         0.16492   0.63399  -0.46987   0.42919  -0.72888
  13        8PY         0.30308  -0.45586   0.19152  -0.65525   0.14603
  14        8PZ         0.12351  -0.27927  -0.09514  -0.51271   0.12186
  15        9PX         0.54448   1.71858  -1.26839   1.48158  -2.56847
  16        9PY         1.20102  -1.37782   0.13564   0.03243   0.60028
  17        9PZ         0.32989  -1.69878  -1.49939  -1.42820  -0.30822
  18       10D 0        0.00053   0.00091   0.00014  -0.00080   0.00083
  19       10D+1       -0.00018  -0.00067  -0.00037  -0.00034  -0.00007
  20       10D-1       -0.00002   0.00100  -0.00045   0.00184  -0.00006
  21       10D+2       -0.00003  -0.00181   0.00123  -0.00173   0.00079
  22       10D-2       -0.00054  -0.00032  -0.00033  -0.00069   0.00102
  23       11D 0       -0.01296  -0.00236  -0.00184   0.01434   0.01205
  24       11D+1       -0.01023   0.01508   0.00355   0.01727   0.01067
  25       11D-1        0.02277  -0.02574   0.01599  -0.03598   0.00361
  26       11D+2       -0.00140   0.03226  -0.01976   0.02320  -0.01964
  27       11D-2       -0.01458   0.02008  -0.00592   0.01510  -0.00066
  28       12D 0       -0.04845  -0.07625   0.11171   0.02854   0.11471
  29       12D+1       -0.04422   0.06983  -0.21429  -0.07900  -0.14038
  30       12D-1        0.02911  -0.13960   0.06159  -0.14228   0.04534
  31       12D+2        0.02030   0.18072  -0.16718   0.21455  -0.21813
  32       12D-2       -0.02584   0.09117  -0.11134   0.16504  -0.09541
  33       13F 0       -0.00103   0.00063  -0.00163  -0.00118   0.00001
  34       13F+1       -0.00028   0.00037  -0.00287  -0.00021  -0.00086
  35       13F-1        0.00042   0.00084   0.00066   0.00081   0.00219
  36       13F+2       -0.00133   0.00137   0.00219   0.00153   0.00207
  37       13F-2       -0.00077  -0.00000  -0.00049  -0.00106   0.00261
  38       13F+3        0.00197  -0.00177   0.00012  -0.00025  -0.00140
  39       13F-3       -0.00075   0.00200  -0.00004  -0.00024  -0.00006
  40       14F 0        0.00193   0.00440   0.00830   0.02446  -0.00396
  41       14F+1       -0.00282  -0.01016   0.02150   0.00152   0.01143
  42       14F-1       -0.00054  -0.00597   0.00221   0.00019  -0.00610
  43       14F+2       -0.00098   0.00554  -0.02571   0.00715  -0.00974
  44       14F-2       -0.00197   0.00910  -0.00175   0.01918  -0.01543
  45       14F+3        0.00105   0.00788  -0.00398  -0.01683  -0.00359
  46       14F-3        0.00009  -0.00096  -0.00928   0.01437  -0.00127
  47 2   H  1S          0.00496  -0.00990   0.00922  -0.01890  -0.00281
  48        2S         -0.22216  -0.40922   0.39431  -0.13474   0.48258
  49        3S         -1.86140  -1.25461   2.33078  -1.42509   3.83645
  50        4S         -0.21373  -0.38188   0.07073  -0.76778   4.07873
  51        5PX         0.00174   0.00252   0.00036  -0.00291  -0.00396
  52        5PY        -0.00154   0.00071  -0.00035  -0.00242   0.00088
  53        5PZ        -0.00113   0.00096  -0.00200  -0.00203   0.00051
  54        6PX         0.17904   0.05749  -0.12160   0.02453  -0.24057
  55        6PY         0.00620   0.01289   0.01404  -0.00260  -0.01669
  56        6PZ        -0.01103  -0.02952   0.12350   0.06305   0.06842
  57        7PX         0.44082   0.29307  -1.07657  -0.44375  -0.89458
  58        7PY         0.19701   0.07307   0.43950   0.14582  -0.55539
  59        7PZ         0.07820  -0.26456   1.20608   0.61768   0.03117
  60        8D 0        0.00443   0.00188  -0.00151   0.00244  -0.00872
  61        8D+1        0.00177   0.00225  -0.00554  -0.00140  -0.00279
  62        8D-1       -0.00030  -0.00153   0.00161  -0.00072  -0.00003
  63        8D+2       -0.00810  -0.00239   0.00545  -0.00267   0.00966
  64        8D-2       -0.00025   0.00095  -0.00080   0.00072  -0.00019
  65        9D 0        0.04261  -0.01883  -0.03990  -0.04966   0.03609
  66        9D+1       -0.00693   0.02555  -0.11130  -0.06153  -0.05875
  67        9D-1        0.01686   0.03660  -0.02880  -0.01974   0.01002
  68        9D+2       -0.05722   0.01333   0.02653   0.05995   0.05154
  69        9D-2       -0.02061  -0.02678  -0.01803   0.01189   0.04999
  70 3   H  1S          0.01306  -0.00861   0.00488  -0.00915  -0.00461
  71        2S         -0.25067   0.55173  -0.25336   0.82600  -0.19888
  72        3S         -3.41738   3.70423  -2.07184   1.23770  -0.03003
  73        4S         -0.95485   2.04939  -0.25614   1.28000  -1.59586
  74        5PX        -0.00129   0.00559  -0.00466   0.00421  -0.00203
  75        5PY         0.00232  -0.00698   0.00178  -0.01042  -0.00227
  76        5PZ         0.00182  -0.00334   0.00285  -0.00428   0.00351
  77        6PX        -0.06899   0.03527  -0.00552   0.04051   0.06571
  78        6PY         0.22331  -0.26901   0.08054  -0.19522   0.00225
  79        6PZ         0.12359  -0.12020   0.03004  -0.13630  -0.02192
  80        7PX        -0.40873   0.07507  -0.38598  -0.22346   0.54262
  81        7PY         0.95175  -1.30314   0.61951  -0.53052  -0.09498
  82        7PZ         0.60631  -0.29669   0.66530   0.02896   0.11454
  83        8D 0        0.00296  -0.00290  -0.00055   0.00029   0.00109
  84        8D+1        0.00313  -0.00345   0.00116  -0.00398  -0.00078
  85        8D-1       -0.00978   0.01241  -0.00190   0.01057   0.00143
  86        8D+2        0.00863  -0.00976   0.00449  -0.00724  -0.00156
  87        8D-2        0.00492  -0.00608   0.00403  -0.00380  -0.00121
  88        9D 0        0.01826  -0.03873  -0.01535  -0.02104  -0.04407
  89        9D+1        0.03005   0.01356   0.01010   0.04003  -0.03541
  90        9D-1       -0.07853   0.04364  -0.03185  -0.00704   0.03034
  91        9D+2        0.05425  -0.11052  -0.00492  -0.03255   0.01783
  92        9D-2        0.04916  -0.01057  -0.00001   0.01735  -0.07851
  93 4   H  1S          0.00496   0.00990   0.00922  -0.01890   0.00281
  94        2S         -0.22216   0.40922   0.39431  -0.13474  -0.48258
  95        3S         -1.86140   1.25461   2.33078  -1.42509  -3.83645
  96        4S         -0.21373   0.38188   0.07073  -0.76778  -4.07873
  97        5PX        -0.00174   0.00252  -0.00036   0.00291  -0.00396
  98        5PY         0.00154   0.00071   0.00035   0.00242   0.00088
  99        5PZ         0.00113   0.00096   0.00200   0.00203   0.00051
 100        6PX        -0.17904   0.05749   0.12160  -0.02453  -0.24057
 101        6PY        -0.00620   0.01289  -0.01404   0.00260  -0.01669
 102        6PZ         0.01103  -0.02952  -0.12350  -0.06305   0.06842
 103        7PX        -0.44082   0.29307   1.07657   0.44375  -0.89458
 104        7PY        -0.19701   0.07307  -0.43950  -0.14582  -0.55539
 105        7PZ        -0.07820  -0.26456  -1.20608  -0.61768   0.03117
 106        8D 0        0.00443  -0.00188  -0.00151   0.00244   0.00872
 107        8D+1        0.00177  -0.00225  -0.00554  -0.00140   0.00279
 108        8D-1       -0.00030   0.00153   0.00161  -0.00072   0.00003
 109        8D+2       -0.00810   0.00239   0.00545  -0.00267  -0.00966
 110        8D-2       -0.00025  -0.00095  -0.00080   0.00072   0.00019
 111        9D 0        0.04261   0.01883  -0.03990  -0.04966  -0.03609
 112        9D+1       -0.00693  -0.02555  -0.11130  -0.06153   0.05875
 113        9D-1        0.01686  -0.03660  -0.02880  -0.01974  -0.01002
 114        9D+2       -0.05722  -0.01333   0.02653   0.05995  -0.05154
 115        9D-2       -0.02061   0.02678  -0.01803   0.01189  -0.04999
 116 5   O  1S          0.02679   0.02365   0.01119  -0.01799   0.00363
 117        2S         -0.08388  -0.07131  -0.03104   0.04717  -0.02452
 118        3S         -0.02951  -0.02343  -0.00922   0.02319  -0.00920
 119        4S          1.31868   0.70240  -0.28922  -0.70656   0.95099
 120        5S          5.73299   2.06828   0.17272  -0.75701   4.03663
 121        6PX         0.02494  -0.01071  -0.01749   0.01735   0.05994
 122        6PY         0.05013   0.04825   0.01434   0.01071   0.00069
 123        6PZ         0.01246   0.03521  -0.03543  -0.02900   0.04867
 124        7PX         0.00598   0.00920   0.01841   0.02125   0.02915
 125        7PY         0.00886   0.00424   0.00609   0.04959  -0.01407
 126        7PZ        -0.00732   0.00926  -0.06271  -0.01730   0.05433
 127        8PX        -0.16492   0.63399   0.46987  -0.42919  -0.72888
 128        8PY        -0.30308  -0.45586  -0.19152   0.65525   0.14603
 129        8PZ        -0.12351  -0.27927   0.09514   0.51271   0.12186
 130        9PX        -0.54448   1.71858   1.26839  -1.48158  -2.56847
 131        9PY        -1.20102  -1.37782  -0.13564  -0.03243   0.60028
 132        9PZ        -0.32989  -1.69878   1.49939   1.42820  -0.30822
 133       10D 0        0.00053  -0.00091   0.00014  -0.00080  -0.00083
 134       10D+1       -0.00018   0.00067  -0.00037  -0.00034   0.00007
 135       10D-1       -0.00002  -0.00100  -0.00045   0.00184   0.00006
 136       10D+2       -0.00003   0.00181   0.00123  -0.00173  -0.00079
 137       10D-2       -0.00054   0.00032  -0.00033  -0.00069  -0.00102
 138       11D 0       -0.01296   0.00236  -0.00184   0.01434  -0.01205
 139       11D+1       -0.01023  -0.01508   0.00355   0.01727  -0.01067
 140       11D-1        0.02277   0.02574   0.01599  -0.03598  -0.00361
 141       11D+2       -0.00140  -0.03226  -0.01976   0.02320   0.01964
 142       11D-2       -0.01458  -0.02008  -0.00592   0.01510   0.00066
 143       12D 0       -0.04845   0.07625   0.11171   0.02854  -0.11471
 144       12D+1       -0.04422  -0.06983  -0.21429  -0.07900   0.14038
 145       12D-1        0.02911   0.13960   0.06159  -0.14228  -0.04534
 146       12D+2        0.02030  -0.18072  -0.16718   0.21455   0.21813
 147       12D-2       -0.02584  -0.09117  -0.11134   0.16504   0.09541
 148       13F 0        0.00103   0.00063   0.00163   0.00118   0.00001
 149       13F+1        0.00028   0.00037   0.00287   0.00021  -0.00086
 150       13F-1       -0.00042   0.00084  -0.00066  -0.00081   0.00219
 151       13F+2        0.00133   0.00137  -0.00219  -0.00153   0.00207
 152       13F-2        0.00077  -0.00000   0.00049   0.00106   0.00261
 153       13F+3       -0.00197  -0.00177  -0.00012   0.00025  -0.00140
 154       13F-3        0.00075   0.00200   0.00004   0.00024  -0.00006
 155       14F 0       -0.00193   0.00440  -0.00830  -0.02446  -0.00396
 156       14F+1        0.00282  -0.01016  -0.02150  -0.00152   0.01143
 157       14F-1        0.00054  -0.00597  -0.00221  -0.00019  -0.00610
 158       14F+2        0.00098   0.00554   0.02571  -0.00715  -0.00974
 159       14F-2        0.00197   0.00910   0.00175  -0.01918  -0.01543
 160       14F+3       -0.00105   0.00788   0.00398   0.01683  -0.00359
 161       14F-3       -0.00009  -0.00096   0.00928  -0.01437  -0.00127
 162 6   H  1S          0.01306   0.00861   0.00488  -0.00915   0.00461
 163        2S         -0.25067  -0.55173  -0.25336   0.82600   0.19888
 164        3S         -3.41738  -3.70423  -2.07184   1.23770   0.03003
 165        4S         -0.95485  -2.04939  -0.25614   1.28000   1.59586
 166        5PX         0.00129   0.00559   0.00466  -0.00421  -0.00203
 167        5PY        -0.00232  -0.00698  -0.00178   0.01042  -0.00227
 168        5PZ        -0.00182  -0.00334  -0.00285   0.00428   0.00351
 169        6PX         0.06899   0.03527   0.00552  -0.04051   0.06571
 170        6PY        -0.22331  -0.26901  -0.08054   0.19522   0.00225
 171        6PZ        -0.12359  -0.12020  -0.03004   0.13630  -0.02192
 172        7PX         0.40873   0.07507   0.38598   0.22346   0.54262
 173        7PY        -0.95175  -1.30314  -0.61951   0.53052  -0.09498
 174        7PZ        -0.60631  -0.29669  -0.66530  -0.02896   0.11454
 175        8D 0        0.00296   0.00290  -0.00055   0.00029  -0.00109
 176        8D+1        0.00313   0.00345   0.00116  -0.00398   0.00078
 177        8D-1       -0.00978  -0.01241  -0.00190   0.01057  -0.00143
 178        8D+2        0.00863   0.00976   0.00449  -0.00724   0.00156
 179        8D-2        0.00492   0.00608   0.00403  -0.00380   0.00121
 180        9D 0        0.01826   0.03873  -0.01535  -0.02104   0.04407
 181        9D+1        0.03005  -0.01356   0.01010   0.04003   0.03541
 182        9D-1       -0.07853  -0.04364  -0.03185  -0.00704  -0.03034
 183        9D+2        0.05425   0.11052  -0.00492  -0.03255  -0.01783
 184        9D-2        0.04916   0.01057  -0.00001   0.01735   0.07851
                          21        22        23        24        25
                           V         V         V         V         V
     Eigenvalues --     0.21303   0.23440   0.24731   0.24825   0.26042
   1 1   O  1S         -0.02008  -0.00161   0.01595  -0.00170   0.01075
   2        2S          0.06823   0.00753  -0.04916   0.00211  -0.05194
   3        3S          0.02682   0.00008  -0.02077  -0.00012  -0.02466
   4        4S         -0.46878   0.30108   0.98719   0.25136   0.56242
   5        5S         -1.35451   1.02211   4.13393  -0.11342   1.67515
   6        6PX         0.04805   0.05173  -0.00945  -0.03161   0.01268
   7        6PY        -0.03424  -0.01538  -0.00415   0.02502   0.01796
   8        6PZ        -0.02553  -0.01990   0.01433  -0.00081   0.00838
   9        7PX        -0.00697   0.03808   0.04547  -0.00650   0.04622
  10        7PY        -0.02809   0.00937   0.00669   0.02267   0.04643
  11        7PZ        -0.02628  -0.00348   0.00930  -0.00658   0.03232
  12        8PX        -0.71648   0.44832   0.40444  -0.15306   0.79686
  13        8PY         0.36849  -0.02394  -0.31958   0.63036   0.87104
  14        8PZ         0.34755  -0.08012  -0.14124  -0.41832   0.52664
  15        9PX        -1.09090   1.18007   0.68717  -0.25459   0.99239
  16        9PY         1.82844  -0.61552  -1.16437   1.34451   0.08346
  17        9PZ         0.87143  -0.92399  -1.94395   0.05764   0.50701
  18       10D 0       -0.00154   0.00159   0.00069  -0.00054   0.00117
  19       10D+1       -0.00121  -0.00044   0.00219   0.00159  -0.00009
  20       10D-1       -0.00029   0.00149  -0.00082   0.00013  -0.00164
  21       10D+2        0.00228  -0.00256  -0.00219   0.00238  -0.00022
  22       10D-2       -0.00082  -0.00087   0.00113  -0.00086  -0.00399
  23       11D 0        0.02897  -0.00931  -0.03010   0.00526  -0.02400
  24       11D+1        0.01497   0.00489  -0.01183  -0.00197  -0.00588
  25       11D-1        0.00492   0.01647   0.00845  -0.00043   0.01367
  26       11D+2       -0.05018  -0.01430   0.04116   0.00451   0.01116
  27       11D-2       -0.00233  -0.00558  -0.00543   0.00660   0.01522
  28       12D 0        0.00258  -0.11357   0.10308  -0.15476   0.12994
  29       12D+1        0.18262   0.04550  -0.25411  -0.05987  -0.01521
  30       12D-1       -0.00219  -0.21989  -0.01707  -0.01224   0.34329
  31       12D+2       -0.23863   0.35955   0.22656  -0.39751  -0.01853
  32       12D-2        0.14441   0.12773  -0.16748   0.08429   0.40861
  33       13F 0        0.00073  -0.00231  -0.00173  -0.00097   0.00242
  34       13F+1        0.00215   0.00218  -0.00241  -0.00233  -0.00120
  35       13F-1        0.00139   0.00079  -0.00082   0.00263  -0.00091
  36       13F+2       -0.00048  -0.00311   0.00040   0.00311   0.00212
  37       13F-2        0.00083  -0.00052   0.00096   0.00123  -0.00201
  38       13F+3       -0.00130  -0.00196   0.00132   0.00204   0.00393
  39       13F-3       -0.00189  -0.00292  -0.00019   0.00133  -0.00321
  40       14F 0       -0.01520   0.01218   0.01665   0.00022  -0.01746
  41       14F+1        0.00494  -0.01789  -0.00334   0.01886  -0.00894
  42       14F-1       -0.00890  -0.00712   0.01465  -0.02762   0.01195
  43       14F+2        0.01599   0.01738  -0.01205  -0.02173  -0.04056
  44       14F-2       -0.00006   0.00050  -0.01270  -0.00443   0.00675
  45       14F+3       -0.02304   0.02030   0.01783  -0.01265  -0.00501
  46       14F-3        0.01131   0.02137   0.00275  -0.00812   0.01894
  47 2   H  1S         -0.01204  -0.02458   0.00259   0.01969   0.00713
  48        2S          0.66300  -0.51910  -0.50178   0.19686  -0.49145
  49        3S          3.05882   0.61898  -3.45818  -0.56828  -1.38900
  50        4S          2.77445   0.13881   0.26845  -0.15653  -0.37428
  51        5PX        -0.01434  -0.00168   0.00657   0.00021   0.00558
  52        5PY         0.00207  -0.00319  -0.00338   0.00635   0.00671
  53        5PZ         0.00484  -0.00052  -0.00180   0.00268   0.00171
  54        6PX        -0.29891  -0.01551   0.26735   0.07503   0.19968
  55        6PY        -0.11651  -0.03395   0.09496  -0.10744  -0.20405
  56        6PZ        -0.06192  -0.03069   0.07680   0.05760  -0.03381
  57        7PX        -1.10261  -0.96584   1.82403   1.36348  -0.05027
  58        7PY        -0.56565  -0.13055   0.16848  -0.79807  -1.03702
  59        7PZ        -0.34361  -0.37223   0.29989   0.16897   0.19354
[...]
 184        9D-2        0.00000   0.00000   0.00000   0.00002
     Gross orbital populations:
                           1
   1 1   O  1S          1.96217
   2        2S          0.98624
   3        3S          0.22927
   4        4S          0.63304
   5        5S          0.05475
   6        6PX         0.37577
   7        6PY         0.41260
   8        6PZ         0.47215
   9        7PX         0.65102
  10        7PY         0.70475
  11        7PZ         0.79480
  12        8PX         0.29634
  13        8PY         0.34152
  14        8PZ         0.48855
  15        9PX         0.00861
  16        9PY         0.01548
  17        9PZ         0.02517
  18       10D 0        0.00038
  19       10D+1        0.00009
  20       10D-1        0.00068
  21       10D+2        0.00151
  22       10D-2        0.00022
  23       11D 0        0.00197
  24       11D+1        0.00037
  25       11D-1        0.00357
  26       11D+2        0.00769
  27       11D-2        0.00113
  28       12D 0       -0.00101
  29       12D+1       -0.00070
  30       12D-1       -0.00068
  31       12D+2       -0.00042
  32       12D-2       -0.00013
  33       13F 0        0.00015
  34       13F+1        0.00016
  35       13F-1        0.00006
  36       13F+2        0.00015
  37       13F-2        0.00008
  38       13F+3        0.00020
  39       13F-3       -0.00002
  40       14F 0        0.00015
  41       14F+1        0.00009
  42       14F-1        0.00003
  43       14F+2        0.00007
  44       14F-2        0.00000
  45       14F+3       -0.00010
  46       14F-3        0.00004
  47 2   H  1S          0.24441
  48        2S          0.38384
  49        3S         -0.00231
  50        4S         -0.00248
  51        5PX         0.01312
  52        5PY         0.00313
  53        5PZ         0.00415
  54        6PX         0.00773
  55        6PY         0.02070
  56        6PZ         0.02375
  57        7PX        -0.00189
  58        7PY         0.01017
  59        7PZ         0.00968
  60        8D 0        0.00068
  61        8D+1        0.00233
  62        8D-1        0.00004
  63        8D+2        0.00169
  64        8D-2        0.00187
  65        9D 0        0.00002
  66        9D+1        0.00615
  67        9D-1       -0.00020
  68        9D+2       -0.00083
  69        9D-2        0.00625
  70 3   H  1S          0.24860
  71        2S          0.41246
  72        3S          0.01639
  73        4S         -0.00092
  74        5PX         0.00350
  75        5PY         0.01050
  76        5PZ         0.00625
  77        6PX         0.01866
  78        6PY         0.01132
  79        6PZ         0.02824
  80        7PX         0.00898
  81        7PY         0.00313
  82        7PZ         0.01485
  83        8D 0        0.00143
  84        8D+1        0.00050
  85        8D-1        0.00207
  86        8D+2        0.00167
  87        8D-2        0.00115
  88        9D 0        0.00368
  89        9D+1        0.00116
  90        9D-1        0.00151
  91        9D+2        0.00313
  92        9D-2        0.00173
  93 4   H  1S          0.24441
  94        2S          0.38384
  95        3S         -0.00231
  96        4S         -0.00248
  97        5PX         0.01312
  98        5PY         0.00313
  99        5PZ         0.00415
 100        6PX         0.00773
 101        6PY         0.02070
 102        6PZ         0.02375
 103        7PX        -0.00189
 104        7PY         0.01017
 105        7PZ         0.00968
 106        8D 0        0.00068
 107        8D+1        0.00233
 108        8D-1        0.00004
 109        8D+2        0.00169
 110        8D-2        0.00187
 111        9D 0        0.00002
 112        9D+1        0.00615
 113        9D-1       -0.00020
 114        9D+2       -0.00083
 115        9D-2        0.00625
 116 5   O  1S          1.96217
 117        2S          0.98624
 118        3S          0.22927
 119        4S          0.63304
 120        5S          0.05475
 121        6PX         0.37577
 122        6PY         0.41260
 123        6PZ         0.47215
 124        7PX         0.65102
 125        7PY         0.70475
 126        7PZ         0.79480
 127        8PX         0.29634
 128        8PY         0.34152
 129        8PZ         0.48855
 130        9PX         0.00861
 131        9PY         0.01548
 132        9PZ         0.02517
 133       10D 0        0.00038
 134       10D+1        0.00009
 135       10D-1        0.00068
 136       10D+2        0.00151
 137       10D-2        0.00022
 138       11D 0        0.00197
 139       11D+1        0.00037
 140       11D-1        0.00357
 141       11D+2        0.00769
 142       11D-2        0.00113
 143       12D 0       -0.00101
 144       12D+1       -0.00070
 145       12D-1       -0.00068
 146       12D+2       -0.00042
 147       12D-2       -0.00013
 148       13F 0        0.00015
 149       13F+1        0.00016
 150       13F-1        0.00006
 151       13F+2        0.00015
 152       13F-2        0.00008
 153       13F+3        0.00020
 154       13F-3       -0.00002
 155       14F 0        0.00015
 156       14F+1        0.00009
 157       14F-1        0.00003
 158       14F+2        0.00007
 159       14F-2        0.00000
 160       14F+3       -0.00010
 161       14F-3        0.00004
 162 6   H  1S          0.24860
 163        2S          0.41246
 164        3S          0.01639
 165        4S         -0.00092
 166        5PX         0.00350
 167        5PY         0.01050
 168        5PZ         0.00625
 169        6PX         0.01866
 170        6PY         0.01132
 171        6PZ         0.02824
 172        7PX         0.00898
 173        7PY         0.00313
 174        7PZ         0.01485
 175        8D 0        0.00143
 176        8D+1        0.00050
 177        8D-1        0.00207
 178        8D+2        0.00167
 179        8D-2        0.00115
 180        9D 0        0.00368
 181        9D+1        0.00116
 182        9D-1        0.00151
 183        9D+2        0.00313
 184        9D-2        0.00173
          Condensed to atoms (all electrons):
               1          2          3          4          5          6
     1  O    7.957403   0.254048   0.283018  -0.008101  -0.021983   0.003599
     2  H    0.254048   0.462602   0.022747   0.001554  -0.008101  -0.000835
     3  H    0.283018   0.022747   0.491996  -0.000835   0.003599  -0.000526
     4  H   -0.008101   0.001554  -0.000835   0.462602   0.254048   0.022747
     5  O   -0.021983  -0.008101   0.003599   0.254048   7.957403   0.283018
     6  H    0.003599  -0.000835  -0.000526   0.022747   0.283018   0.491996
 Mulliken charges:
               1
     1  O   -0.467985
     2  H    0.267985
     3  H    0.200000
     4  H    0.267985
     5  O   -0.467985
     6  H    0.200000
 Sum of Mulliken charges =  -0.00000
 Mulliken charges with hydrogens summed into heavy atoms:
               1
     1  O    0.000000
     5  O   -0.000000
 Electronic spatial extent (au):  <R**2>=            180.9082
 Charge=             -0.0000 electrons
 Dipole moment (field-independent basis, Debye):
    X=             -0.0000    Y=             -0.0000    Z=              0.0000  Tot=              0.0000
 Quadrupole moment (field-independent basis, Debye-Ang):
   XX=            -13.8790   YY=             -9.1807   ZZ=            -11.3887
   XY=             -2.5016   XZ=              0.5455   YZ=              5.5939
 Traceless Quadrupole moment (field-independent basis, Debye-Ang):
   XX=             -2.3962   YY=              2.3021   ZZ=              0.0941
   XY=             -2.5016   XZ=              0.5455   YZ=              5.5939
 Octapole moment (field-independent basis, Debye-Ang**2):
  XXX=             -0.0000  YYY=             -0.0000  ZZZ=             -0.0000  XYY=             -0.0000
  XXY=              0.0000  XXZ=              0.0000  XZZ=              0.0000  YZZ=              0.0000
  YYZ=              0.0000  XYZ=             -0.0000
 Hexadecapole moment (field-independent basis, Debye-Ang**3):
 XXXX=            -61.9557 YYYY=            -23.2476 ZZZZ=           -105.9681 XXXY=              9.4929
 XXXZ=             30.7278 YYYX=              7.4392 YYYZ=            -10.2498 ZZZX=             29.8974
 ZZZY=             -6.5336 XXYY=             -9.7837 XXZZ=            -23.6778 YYZZ=            -11.0397
 XXYZ=              0.6999 YYXZ=              2.8125 ZZXY=             -5.0732
 N-N= 3.711291884935D+01 E-N=-4.354887031601D+02  KE= 1.518880095935D+02
 Orbital energies and kinetic energies (alpha):
                                 1                 2
   1         O               -20.564174         29.189831
   2         O               -20.564169         29.189679
   3         O                -1.353495          2.584036
   4         O                -1.342910          2.653640
   5         O                -0.732661          1.722624
   6         O                -0.700721          1.856410
   7         O                -0.588350          2.096313
   8         O                -0.574253          2.177042
   9         O                -0.510510          2.233207
  10         O                -0.506261          2.241221
  11         V                 0.029692          0.093902
  12         V                 0.040623          0.085072
  13         V                 0.055012          0.082498
  14         V                 0.069512          0.094414
  15         V                 0.127972          0.214160
  16         V                 0.146419          0.380622
  17         V                 0.165019          0.378236
  18         V                 0.166201          0.240105
  19         V                 0.183426          0.266070
  20         V                 0.198405          0.382988
  21         V                 0.213029          0.410545
  22         V                 0.234401          0.392099
  23         V                 0.247309          0.299249
  24         V                 0.248252          0.321059
  25         V                 0.260417          0.318158
  26         V                 0.262645          0.316531
  27         V                 0.322493          0.412327
  28         V                 0.336467          0.434446
  29         V                 0.342046          0.542256
  30         V                 0.373994          0.444390
  31         V                 0.391357          0.489170
  32         V                 0.412694          0.954424
  33         V                 0.423231          0.598594
  34         V                 0.434966          0.597872
  35         V                 0.456689          0.982663
  36         V                 0.459200          0.757097
  37         V                 0.488558          1.047662
  38         V                 0.506250          0.979982
  39         V                 0.628699          0.966144
  40         V                 0.631281          0.832708
  41         V                 0.681502          0.851447
  42         V                 0.688489          0.911867
  43         V                 0.717410          0.843301
  44         V                 0.718297          0.860500
  45         V                 0.755417          0.937752
  46         V                 0.763551          0.887295
  47         V                 0.776147          0.900591
  48         V                 0.786945          1.098601
  49         V                 0.845742          1.256714
  50         V                 0.852620          1.109666
  51         V                 0.890505          1.127671
  52         V                 0.895649          1.044555
  53         V                 0.904064          1.196817
  54         V                 0.904816          1.366372
  55         V                 0.940876          1.124956
  56         V                 0.946657          1.406799
  57         V                 0.978317          1.286199
  58         V                 0.981117          1.171995
  59         V                 1.021843          1.283355
  60         V                 1.029286          1.708106
  61         V                 1.036653          1.168915
  62         V                 1.050889          1.627805
  63         V                 1.052495          1.326532
  64         V                 1.064726          1.622189
  65         V                 1.084233          1.311446
  66         V                 1.105677          1.575099
  67         V                 1.113512          1.656446
  68         V                 1.142433          1.376121
  69         V                 1.196020          1.532437
  70         V                 1.242095          1.415183
  71         V                 1.247678          1.431797
  72         V                 1.269241          1.365561
  73         V                 1.290377          1.480121
  74         V                 1.302109          1.532293
  75         V                 1.351293          1.678569
  76         V                 1.367532          1.542703
  77         V                 1.505834          1.726937
  78         V                 1.534327          1.778254
  79         V                 1.587205          1.849053
  80         V                 1.600054          1.841706
  81         V                 1.633906          1.918582
  82         V                 1.660409          1.889198
  83         V                 1.689950          2.105922
  84         V                 1.717494          2.227467
  85         V                 1.833292          2.708344
  86         V                 1.836735          2.187242
  87         V                 1.888001          2.312476
  88         V                 1.914382          2.687900
  89         V                 1.999105          2.879160
  90         V                 2.060314          2.879010
  91         V                 2.119837          2.971670
  92         V                 2.222700          2.952629
  93         V                 2.302536          2.743587
  94         V                 2.333845          2.676827
  95         V                 2.356089          2.743866
  96         V                 2.358945          2.747330
  97         V                 2.372541          2.779459
  98         V                 2.439515          2.768805
  99         V                 2.462554          3.027877
 100         V                 2.474126          2.909991
 101         V                 2.485073          3.053825
 102         V                 2.496314          3.337760
 103         V                 2.511444          3.143151
 104         V                 2.555317          3.167207
 105         V                 2.604857          2.984175
 106         V                 2.617498          3.517837
 107         V                 2.699501          3.353480
 108         V                 2.764140          3.282841
 109         V                 2.767161          3.304194
 110         V                 2.819052          3.569750
 111         V                 2.858925          3.236203
 112         V                 2.895711          3.225128
 113         V                 2.896199          3.324357
 114         V                 2.915847          3.154126
 115         V                 2.965469          3.405694
 116         V                 3.081359          3.505570
 117         V                 3.671692          4.614602
 118         V                 3.792003          4.706315
 119         V                 3.806084          4.889609
 120         V                 3.859172          4.733987
 121         V                 4.046855          4.421946
 122         V                 4.065473          4.702373
 123         V                 4.196083          5.414186
 124         V                 4.204062          5.657415
 125         V                 4.226135          6.183871
 126         V                 4.254738          4.662914
 127         V                 4.255338          5.701252
 128         V                 4.293109          4.833820
 129         V                 4.335565          4.689428
 130         V                 4.400914          5.238784
 131         V                 4.413412          5.010521
 132         V                 4.444026          4.953039
 133         V                 4.492416          5.194387
 134         V                 4.523325          5.386615
 135         V                 4.523577          5.627751
 136         V                 4.560314          5.495015
 137         V                 4.665338          5.938675
 138         V                 4.718783          6.535489
 139         V                 4.753577          7.102697
 140         V                 4.805054          7.138793
 141         V                 4.911343          6.677476
 142         V                 4.939371          6.881288
 143         V                 5.176550          5.906091
 144         V                 5.191176          5.809346
 145         V                 5.191666          6.070900
 146         V                 5.232750          5.890125
 147         V                 5.309132          7.170853
 148         V                 5.314004          6.573419
 149         V                 5.359413          7.247460
 150         V                 5.396795          7.505076
 151         V                 5.537839          7.263202
 152         V                 5.550046          7.585924
 153         V                 5.733506          6.719285
 154         V                 5.752606          6.854194
 155         V                 6.190153          9.148225
 156         V                 6.216464          8.985052
 157         V                 6.532024          8.546727
 158         V                 6.588905          8.527133
 159         V                 6.739107          7.715077
 160         V                 6.806720          7.775406
 161         V                 6.901237          7.991597
 162         V                 6.902944          7.980898
 163         V                 7.144223          8.449300
 164         V                 7.187628          8.514203
 165         V                 7.310632          9.480546
 166         V                 7.310822          9.669961
 167         V                 7.318519          8.477078
 168         V                 7.332136          8.932458
 169         V                 7.335958          8.420327
 170         V                 7.355243          9.775498
 171         V                 7.373504          9.253563
 172         V                 7.387992          9.574522
 173         V                 7.420389          9.747187
 174         V                 7.448400          9.820116
 175         V                 7.585606          9.913403
 176         V                 7.759295         10.920266
 177         V                 7.897400         10.307761
 178         V                 7.942488         10.135313
 179         V                 7.955636         10.110838
 180         V                 8.067210          9.929837
 181         V                 8.825963         11.297427
 182         V                 8.835686         11.285652
 183         V                15.763935         40.098199
 184         V                15.984107         40.251200
 Total kinetic energy from orbitals= 1.518880095935D+02
 No NMR shielding tensors so no spin-rotation constants.
 Leave Link  601 at Mon Feb 28 12:39:03 2022, MaxMem= 26843545600 cpu:              11.2 elap:               1.6
 (Enter /sw/contrib/gaussian/gdv/J14p/gdv/l9999.exe)

 This type of calculation cannot be archived.


 REVOLUTIONS HAVE NEVER LIGHTENED THE BURDEN OF TYRANNY:
 THEY HAVE MERELY SHIFTED IT TO OTHER SHOULDERS.
                                   -- G. B. SHAW (1903)
 Job cpu time:       0 days  0 hours 16 minutes 17.0 seconds.
 Elapsed time:       0 days  0 hours  5 minutes 39.2 seconds.
 File lengths (MBytes):  RWF=     19 Int=      0 D2E=      0 Chk=      8 Scr=      1
 Normal termination of Gaussian DV at Mon Feb 28 12:39:03 2022.
