water dimer RHF                                                         
SP        RUnkPrc                                                     UnkBas              
Number of atoms                            I                6
Info1-9                                    I   N=           9
          23          23           0           0           0         110
           0           0           0
Full Title                                 C   N=           2
water dimer RHF         
Route                                      C   N=          12
#p nonstd 1/38=1,172=1/1; 2/12=2,15=1,40=1/2; 3/5=16,6=1,7=1
0,11=1,14=-4,25=1,30=1,116=1/1,2,3; 4//1; 5/5=2,38=5/2; 6/7=
3,28=1/1; 99/5=1,9=1/99;
Charge                                     I                0
Multiplicity                               I                1
Number of electrons                        I               20
Number of alpha electrons                  I               10
Number of beta electrons                   I               10
Number of basis functions                  I              184
Number of independent functions            I              184
Number of point charges in /Mol/           I                0
Number of translation vectors              I                0
Atomic numbers                             I   N=           6
           8           1           1           1           8           1
Nuclear charges                            R   N=           6
  8.00000000E+00  1.00000000E+00  1.00000000E+00  1.00000000E+00  8.00000000E+00
  1.00000000E+00
Current cartesian coordinates              R   N=          18
 -1.55096248E+00  7.45383573E-01  2.01396806E+00  2.60689609E-01  8.11918940E-01
  1.81937540E+00 -2.02460911E+00  2.28563320E+00  2.85494154E+00 -2.60689609E-01
 -8.11918940E-01 -1.81937540E+00  1.55096248E+00 -7.45383573E-01 -2.01396806E+00
  2.02460911E+00 -2.28563320E+00 -2.85494154E+00
Number of symbols in /Mol/                 I                0
Int Atom Types                             I   N=           6
           0           0           0           0           0           0
Force Field                                I                0
Atom Types                                 C   N=           6
                                                            
            
MM charges                                 R   N=           6
  0.00000000E+00  0.00000000E+00  0.00000000E+00  0.00000000E+00  0.00000000E+00
  0.00000000E+00
Integer atomic weights                     I   N=           6
          16           1           1           1          16           1
Real atomic weights                        R   N=           6
  1.59949146E+01  1.00782504E+00  1.00782504E+00  1.00782504E+00  1.59949146E+01
  1.00782504E+00
Atom fragment info                         I   N=           6
           0           0           0           0           0           0
Atom residue num                           I   N=           6
           0           0           0           0           0           0
Nuclear spins                              I   N=           6
           0           1           1           1           0           1
Nuclear ZEff                               R   N=           6
 -5.60000000E+00 -1.00000000E+00 -1.00000000E+00 -1.00000000E+00 -5.60000000E+00
 -1.00000000E+00
Nuclear ZNuc                               R   N=           6
  8.00000000E+00  1.00000000E+00  1.00000000E+00  1.00000000E+00  8.00000000E+00
  1.00000000E+00
Nuclear QMom                               R   N=           6
  0.00000000E+00  0.00000000E+00  0.00000000E+00  0.00000000E+00  0.00000000E+00
  0.00000000E+00
Nuclear GFac                               R   N=           6
  0.00000000E+00  2.79284600E+00  2.79284600E+00  2.79284600E+00  0.00000000E+00
  2.79284600E+00
MicOpt                                     I   N=           6
          -1          -1          -1          -1          -1          -1
Number of residues                         I                0
Number of secondary structures             I                0
SymInf integers                            I   N=          26
           1           1           1           1           1           0
           0           0           0           0           0           0
           0           0           0           0           0           0
           0           0           0           0           0           0
           0           0
RotTr to input orientation                 R   N=          12
  1.00000000E+00  0.00000000E+00  0.00000000E+00  0.00000000E+00  1.00000000E+00
  0.00000000E+00  0.00000000E+00  0.00000000E+00  1.00000000E+00 -0.00000000E+00
 -0.00000000E+00 -0.00000000E+00
Number of contracted shells                I               64
Number of primitive shells                 I               98
Pure/Cartesian d shells                    I                0
Pure/Cartesian f shells                    I                0
Highest angular momentum                   I                3
Largest degree of contraction              I                7
Shell types                                I   N=          64
           0           0           0           0           0           1
           1           1           1          -2          -2          -2
          -3          -3           0           0           0           0
           1           1           1          -2          -2           0
           0           0           0           1           1           1
          -2          -2           0           0           0           0
           1           1           1          -2          -2           0
           0           0           0           0           1           1
           1           1          -2          -2          -2          -3
          -3           0           0           0           0           1
           1           1          -2          -2
Number of primitives per shell             I   N=          64
           7           6           1           1           1           3
           1           1           1           1           1           1
           1           1           3           1           1           1
           1           1           1           1           1           3
           1           1           1           1           1           1
           1           1           3           1           1           1
           1           1           1           1           1           7
           6           1           1           1           3           1
           1           1           1           1           1           1
           1           3           1           1           1           1
           1           1           1           1
Shell to atom map                          I   N=          64
           1           1           1           1           1           1
           1           1           1           1           1           1
           1           1           2           2           2           2
           2           2           2           2           2           3
           3           3           3           3           3           3
           3           3           4           4           4           4
           4           4           4           4           4           5
           5           5           5           5           5           5
           5           5           5           5           5           5
           5           6           6           6           6           6
           6           6           6           6
Primitive exponents                        R   N=          98
  1.53300000E+04  2.29900000E+03  5.22400000E+02  1.47300000E+02  4.75500000E+01
  1.67600000E+01  6.20700000E+00  5.22400000E+02  1.47300000E+02  4.75500000E+01
  1.67600000E+01  6.20700000E+00  6.88200000E-01  1.75200000E+00  2.38400000E-01
  7.37600000E-02  3.44600000E+01  7.74900000E+00  2.28000000E+00  7.15600000E-01
  2.14000000E-01  5.97400000E-02  2.31400000E+00  6.45000000E-01  2.14000000E-01
  1.42800000E+00  5.00000000E-01  3.38700000E+01  5.09500000E+00  1.15900000E+00
  3.25800000E-01  1.02700000E-01  2.52600000E-02  1.40700000E+00  3.88000000E-01
  1.02000000E-01  1.05700000E+00  2.47000000E-01  3.38700000E+01  5.09500000E+00
  1.15900000E+00  3.25800000E-01  1.02700000E-01  2.52600000E-02  1.40700000E+00
  3.88000000E-01  1.02000000E-01  1.05700000E+00  2.47000000E-01  3.38700000E+01
  5.09500000E+00  1.15900000E+00  3.25800000E-01  1.02700000E-01  2.52600000E-02
  1.40700000E+00  3.88000000E-01  1.02000000E-01  1.05700000E+00  2.47000000E-01
  1.53300000E+04  2.29900000E+03  5.22400000E+02  1.47300000E+02  4.75500000E+01
  1.67600000E+01  6.20700000E+00  5.22400000E+02  1.47300000E+02  4.75500000E+01
  1.67600000E+01  6.20700000E+00  6.88200000E-01  1.75200000E+00  2.38400000E-01
  7.37600000E-02  3.44600000E+01  7.74900000E+00  2.28000000E+00  7.15600000E-01
  2.14000000E-01  5.97400000E-02  2.31400000E+00  6.45000000E-01  2.14000000E-01
  1.42800000E+00  5.00000000E-01  3.38700000E+01  5.09500000E+00  1.15900000E+00
  3.25800000E-01  1.02700000E-01  2.52600000E-02  1.40700000E+00  3.88000000E-01
  1.02000000E-01  1.05700000E+00  2.47000000E-01
Contraction coefficients                   R   N=          98
  5.19808943E-04  4.02025621E-03  2.07128267E-02  8.10105536E-02  2.35962985E-01
  4.42653446E-01  3.57064423E-01 -4.42115008E-05 -1.22591041E-03 -1.05517725E-02
 -6.74452633E-02 -1.71198607E-01  1.07329856E+00  1.00000000E+00  1.00000000E+00
  1.00000000E+00  4.11634896E-02  2.57762836E-01  8.02419274E-01  1.00000000E+00
  1.00000000E+00  1.00000000E+00  1.00000000E+00  1.00000000E+00  1.00000000E+00
  1.00000000E+00  1.00000000E+00  2.54948632E-02  1.90362766E-01  8.52162022E-01
  1.00000000E+00  1.00000000E+00  1.00000000E+00  1.00000000E+00  1.00000000E+00
  1.00000000E+00  1.00000000E+00  1.00000000E+00  2.54948632E-02  1.90362766E-01
  8.52162022E-01  1.00000000E+00  1.00000000E+00  1.00000000E+00  1.00000000E+00
  1.00000000E+00  1.00000000E+00  1.00000000E+00  1.00000000E+00  2.54948632E-02
  1.90362766E-01  8.52162022E-01  1.00000000E+00  1.00000000E+00  1.00000000E+00
  1.00000000E+00  1.00000000E+00  1.00000000E+00  1.00000000E+00  1.00000000E+00
  5.19808943E-04  4.02025621E-03  2.07128267E-02  8.10105536E-02  2.35962985E-01
  4.42653446E-01  3.57064423E-01 -4.42115008E-05 -1.22591041E-03 -1.05517725E-02
 -6.74452633E-02 -1.71198607E-01  1.07329856E+00  1.00000000E+00  1.00000000E+00
  1.00000000E+00  4.11634896E-02  2.57762836E-01  8.02419274E-01  1.00000000E+00
  1.00000000E+00  1.00000000E+00  1.00000000E+00  1.00000000E+00  1.00000000E+00
  1.00000000E+00  1.00000000E+00  2.54948632E-02  1.90362766E-01  8.52162022E-01
  1.00000000E+00  1.00000000E+00  1.00000000E+00  1.00000000E+00  1.00000000E+00
  1.00000000E+00  1.00000000E+00  1.00000000E+00
Coordinates of each shell                  R   N=         192
 -1.55096248E+00  7.45383573E-01  2.01396806E+00 -1.55096248E+00  7.45383573E-01
  2.01396806E+00 -1.55096248E+00  7.45383573E-01  2.01396806E+00 -1.55096248E+00
  7.45383573E-01  2.01396806E+00 -1.55096248E+00  7.45383573E-01  2.01396806E+00
 -1.55096248E+00  7.45383573E-01  2.01396806E+00 -1.55096248E+00  7.45383573E-01
  2.01396806E+00 -1.55096248E+00  7.45383573E-01  2.01396806E+00 -1.55096248E+00
  7.45383573E-01  2.01396806E+00 -1.55096248E+00  7.45383573E-01  2.01396806E+00
 -1.55096248E+00  7.45383573E-01  2.01396806E+00 -1.55096248E+00  7.45383573E-01
  2.01396806E+00 -1.55096248E+00  7.45383573E-01  2.01396806E+00 -1.55096248E+00
  7.45383573E-01  2.01396806E+00  2.60689609E-01  8.11918940E-01  1.81937540E+00
  2.60689609E-01  8.11918940E-01  1.81937540E+00  2.60689609E-01  8.11918940E-01
  1.81937540E+00  2.60689609E-01  8.11918940E-01  1.81937540E+00  2.60689609E-01
  8.11918940E-01  1.81937540E+00  2.60689609E-01  8.11918940E-01  1.81937540E+00
  2.60689609E-01  8.11918940E-01  1.81937540E+00  2.60689609E-01  8.11918940E-01
  1.81937540E+00  2.60689609E-01  8.11918940E-01  1.81937540E+00 -2.02460911E+00
  2.28563320E+00  2.85494154E+00 -2.02460911E+00  2.28563320E+00  2.85494154E+00
 -2.02460911E+00  2.28563320E+00  2.85494154E+00 -2.02460911E+00  2.28563320E+00
  2.85494154E+00 -2.02460911E+00  2.28563320E+00  2.85494154E+00 -2.02460911E+00
  2.28563320E+00  2.85494154E+00 -2.02460911E+00  2.28563320E+00  2.85494154E+00
 -2.02460911E+00  2.28563320E+00  2.85494154E+00 -2.02460911E+00  2.28563320E+00
  2.85494154E+00 -2.60689609E-01 -8.11918940E-01 -1.81937540E+00 -2.60689609E-01
 -8.11918940E-01 -1.81937540E+00 -2.60689609E-01 -8.11918940E-01 -1.81937540E+00
 -2.60689609E-01 -8.11918940E-01 -1.81937540E+00 -2.60689609E-01 -8.11918940E-01
 -1.81937540E+00 -2.60689609E-01 -8.11918940E-01 -1.81937540E+00 -2.60689609E-01
 -8.11918940E-01 -1.81937540E+00 -2.60689609E-01 -8.11918940E-01 -1.81937540E+00
 -2.60689609E-01 -8.11918940E-01 -1.81937540E+00  1.55096248E+00 -7.45383573E-01
 -2.01396806E+00  1.55096248E+00 -7.45383573E-01 -2.01396806E+00  1.55096248E+00
 -7.45383573E-01 -2.01396806E+00  1.55096248E+00 -7.45383573E-01 -2.01396806E+00
  1.55096248E+00 -7.45383573E-01 -2.01396806E+00  1.55096248E+00 -7.45383573E-01
 -2.01396806E+00  1.55096248E+00 -7.45383573E-01 -2.01396806E+00  1.55096248E+00
 -7.45383573E-01 -2.01396806E+00  1.55096248E+00 -7.45383573E-01 -2.01396806E+00
  1.55096248E+00 -7.45383573E-01 -2.01396806E+00  1.55096248E+00 -7.45383573E-01
 -2.01396806E+00  1.55096248E+00 -7.45383573E-01 -2.01396806E+00  1.55096248E+00
 -7.45383573E-01 -2.01396806E+00  1.55096248E+00 -7.45383573E-01 -2.01396806E+00
  2.02460911E+00 -2.28563320E+00 -2.85494154E+00  2.02460911E+00 -2.28563320E+00
 -2.85494154E+00  2.02460911E+00 -2.28563320E+00 -2.85494154E+00  2.02460911E+00
 -2.28563320E+00 -2.85494154E+00  2.02460911E+00 -2.28563320E+00 -2.85494154E+00
  2.02460911E+00 -2.28563320E+00 -2.85494154E+00  2.02460911E+00 -2.28563320E+00
 -2.85494154E+00  2.02460911E+00 -2.28563320E+00 -2.85494154E+00  2.02460911E+00
 -2.28563320E+00 -2.85494154E+00
Num ILSW                                   I              100
ILSW                                       I   N=         100
           0           0           0           0           2           0
           0           0           0           0           0          -1
           5           0           0           0           0           0
           0           0           0           0           0           0
           0           1           0           0           0           0
           0           0      100000           0          -1           0
           0           0           0           0           0           0
           0           0           0           1           0           0
           0 -2000000000           1           0           0           0
           0           0           4          65           0           0
           0           0           0           0           0           0
           0           0           0           6           0           1
           0           0           0           0           0           0
           0           0           0           0           0           0
           0           0           0           0           0           0
           0           0           0           0           0           0
           0           0           0           0
Num RLSW                                   I               65
RLSW                                       R   N=          65
  1.00000000E+00  1.00000000E+00  1.00000000E+00  1.00000000E+00  1.00000000E+00
  0.00000000E+00  0.00000000E+00  1.00000000E+00  0.00000000E+00  0.00000000E+00
  0.00000000E+00  0.00000000E+00  1.00000000E+00  0.00000000E+00  0.00000000E+00
  0.00000000E+00  0.00000000E+00  1.00000000E+00  0.00000000E+00  0.00000000E+00
  0.00000000E+00  0.00000000E+00  1.00000000E+00  0.00000000E+00  0.00000000E+00
  0.00000000E+00  0.00000000E+00  1.00000000E+00  0.00000000E+00  0.00000000E+00
  0.00000000E+00  0.00000000E+00  1.00000000E+00  0.00000000E+00  0.00000000E+00
  0.00000000E+00  0.00000000E+00  0.00000000E+00  1.00000000E+00  1.00000000E+00
  0.00000000E+00  1.00000000E+00  0.00000000E+00  0.00000000E+00  0.00000000E+00
  0.00000000E+00  0.00000000E+00  0.00000000E+00  0.00000000E+00  0.00000000E+00
  0.00000000E+00  0.00000000E+00  1.00000000E+00  1.00000000E+00  1.00000000E+00
  1.00000000E+00  0.00000000E+00  0.00000000E+00  0.00000000E+00  0.00000000E+00
  0.00000000E+00  0.00000000E+00  0.00000000E+00  0.00000000E+00  2.00000000E-11
MxBond                                     I                2
NBond                                      I   N=           6
           2           1           1           1           2           1
IBond                                      I   N=          12
           2           3           1           0           1           0
           5           0           4           6           5           0
RBond                                      R   N=          12
  1.00000000E+00  1.00000000E+00  1.00000000E+00  0.00000000E+00  1.00000000E+00
  0.00000000E+00  1.00000000E+00  0.00000000E+00  1.00000000E+00  1.00000000E+00
  1.00000000E+00  0.00000000E+00
Virial Ratio                               R      2.001559868827068E+00
SCF Energy                                 R     -1.521249349648212E+02
Total Energy                               R     -1.521249349648212E+02
RMS Density                                R      2.836646798416421E-09
Job Status                                 I                1
Nuclear derivative order                   I                0
External E-field                           R   N=         105
  0.00000000E+00  0.00000000E+00  0.00000000E+00  0.00000000E+00  0.00000000E+00
  0.00000000E+00  0.00000000E+00  0.00000000E+00  0.00000000E+00  0.00000000E+00
  0.00000000E+00  0.00000000E+00  0.00000000E+00  0.00000000E+00  0.00000000E+00
  0.00000000E+00  0.00000000E+00  0.00000000E+00  0.00000000E+00  0.00000000E+00
  0.00000000E+00  0.00000000E+00  0.00000000E+00  0.00000000E+00  0.00000000E+00
  0.00000000E+00  0.00000000E+00  0.00000000E+00  0.00000000E+00  0.00000000E+00
  0.00000000E+00  0.00000000E+00  0.00000000E+00  0.00000000E+00  0.00000000E+00
  0.00000000E+00  0.00000000E+00  0.00000000E+00  0.00000000E+00  0.00000000E+00
  0.00000000E+00  0.00000000E+00  0.00000000E+00  0.00000000E+00  0.00000000E+00
  0.00000000E+00  0.00000000E+00  0.00000000E+00  0.00000000E+00  0.00000000E+00
  0.00000000E+00  0.00000000E+00  0.00000000E+00  0.00000000E+00  0.00000000E+00
  0.00000000E+00  0.00000000E+00  0.00000000E+00  0.00000000E+00  0.00000000E+00
  0.00000000E+00  0.00000000E+00  0.00000000E+00  0.00000000E+00  0.00000000E+00
  0.00000000E+00  0.00000000E+00  0.00000000E+00  0.00000000E+00  0.00000000E+00
  0.00000000E+00  0.00000000E+00  0.00000000E+00  0.00000000E+00  0.00000000E+00
  0.00000000E+00  0.00000000E+00  0.00000000E+00  0.00000000E+00  0.00000000E+00
  0.00000000E+00  0.00000000E+00  0.00000000E+00  0.00000000E+00  0.00000000E+00
  0.00000000E+00  0.00000000E+00  0.00000000E+00  0.00000000E+00  0.00000000E+00
  0.00000000E+00  0.00000000E+00  0.00000000E+00  0.00000000E+00  0.00000000E+00
  0.00000000E+00  0.00000000E+00  0.00000000E+00  0.00000000E+00  0.00000000E+00
  0.00000000E+00  0.00000000E+00  0.00000000E+00  0.00000000E+00  0.00000000E+00
IOpCl                                      I                0
IROHF                                      I                0
Alpha Orbital Energies                     R   N=         184
 -2.05641745E+01 -2.05641693E+01 -1.35349472E+00 -1.34291042E+00 -7.32661475E-01
 -7.00720803E-01 -5.88350500E-01 -5.74253487E-01 -5.10510024E-01 -5.06261460E-01
  2.96921787E-02  4.06231218E-02  5.50118270E-02  6.95117882E-02  1.27972101E-01
  1.46418853E-01  1.65019466E-01  1.66200865E-01  1.83425931E-01  1.98405236E-01
  2.13028519E-01  2.34400653E-01  2.47308919E-01  2.48252448E-01  2.60416683E-01
  2.62645226E-01  3.22492669E-01  3.36466548E-01  3.42046006E-01  3.73994450E-01
  3.91356582E-01  4.12693736E-01  4.23231086E-01  4.34965698E-01  4.56689105E-01
  4.59200401E-01  4.88558178E-01  5.06250445E-01  6.28699278E-01  6.31281067E-01
  6.81501574E-01  6.88489292E-01  7.17410249E-01  7.18296511E-01  7.55416605E-01
  7.63551168E-01  7.76147431E-01  7.86944973E-01  8.45742478E-01  8.52620190E-01
  8.90505056E-01  8.95649477E-01  9.04063818E-01  9.04816075E-01  9.40876266E-01
  9.46657199E-01  9.78317089E-01  9.81117470E-01  1.02184308E+00  1.02928643E+00
  1.03665289E+00  1.05088909E+00  1.05249488E+00  1.06472615E+00  1.08423265E+00
  1.10567669E+00  1.11351215E+00  1.14243307E+00  1.19601986E+00  1.24209524E+00
  1.24767779E+00  1.26924070E+00  1.29037671E+00  1.30210900E+00  1.35129296E+00
  1.36753174E+00  1.50583422E+00  1.53432708E+00  1.58720495E+00  1.60005373E+00
  1.63390648E+00  1.66040892E+00  1.68994953E+00  1.71749428E+00  1.83329195E+00
  1.83673504E+00  1.88800053E+00  1.91438219E+00  1.99910463E+00  2.06031383E+00
  2.11983746E+00  2.22269963E+00  2.30253634E+00  2.33384507E+00  2.35608890E+00
  2.35894531E+00  2.37254115E+00  2.43951496E+00  2.46255431E+00  2.47412590E+00
  2.48507306E+00  2.49631430E+00  2.51144363E+00  2.55531683E+00  2.60485703E+00
  2.61749804E+00  2.69950092E+00  2.76413959E+00  2.76716115E+00  2.81905212E+00
  2.85892506E+00  2.89571074E+00  2.89619861E+00  2.91584690E+00  2.96546946E+00
  3.08135942E+00  3.67169248E+00  3.79200340E+00  3.80608378E+00  3.85917219E+00
  4.04685518E+00  4.06547311E+00  4.19608273E+00  4.20406155E+00  4.22613456E+00
  4.25473818E+00  4.25533757E+00  4.29310913E+00  4.33556545E+00  4.40091381E+00
  4.41341208E+00  4.44402583E+00  4.49241596E+00  4.52332482E+00  4.52357666E+00
  4.56031418E+00  4.66533791E+00  4.71878322E+00  4.75357673E+00  4.80505421E+00
  4.91134306E+00  4.93937089E+00  5.17655034E+00  5.19117642E+00  5.19166598E+00
  5.23274969E+00  5.30913204E+00  5.31400445E+00  5.35941337E+00  5.39679517E+00
  5.53783857E+00  5.55004572E+00  5.73350570E+00  5.75260621E+00  6.19015267E+00
  6.21646442E+00  6.53202372E+00  6.58890514E+00  6.73910702E+00  6.80671981E+00
  6.90123699E+00  6.90294369E+00  7.14422265E+00  7.18762845E+00  7.31063184E+00
  7.31082214E+00  7.31851906E+00  7.33213564E+00  7.33595826E+00  7.35524269E+00
  7.37350388E+00  7.38799233E+00  7.42038934E+00  7.44839953E+00  7.58560593E+00
  7.75929490E+00  7.89740016E+00  7.94248819E+00  7.95563635E+00  8.06720957E+00
  8.82596262E+00  8.83568627E+00  1.57639346E+01  1.59841073E+01
Alpha MO coefficients                      R   N=       33856
  6.90623437E-01 -6.36323162E-03  3.08808547E-02 -5.99711757E-04 -1.18694827E-03
  7.53260335E-04  9.57312639E-04  3.71673165E-04 -6.27264605E-04 -9.06864271E-04
 -3.45965790E-04  7.31397948E-06 -7.41869804E-04 -5.23521292E-04 -2.90703676E-04
  7.14039438E-05  3.40767844E-04 -2.78598761E-05 -2.42511977E-05  4.02379118E-05
  1.54662401E-05 -1.60463501E-05  2.39707739E-04  1.73433961E-04 -3.45651095E-04
 -7.14724142E-05  1.44116791E-04  1.21816466E-04 -1.42127379E-04  4.31539451E-05
  1.24469619E-04 -1.56400674E-05  8.16425200E-06 -8.43148008E-06  1.18592138E-05
  1.05347864E-05 -1.11205346E-05  6.32230101E-06 -4.92191075E-07  3.12159965E-05
  7.96692066E-05 -3.91808340E-05  6.42668519E-05  7.42002288E-05 -1.32072051E-04
  1.73973719E-05  3.36137179E-04  9.51915758E-04  4.61589066E-04 -3.56058557E-05
 -1.53275667E-04 -1.24587115E-06  3.19240591E-05 -6.47953020E-04  1.43900647E-05
  1.13756738E-04 -2.50121838E-04  1.54443506E-04  3.90573852E-04  4.70060059E-05
  1.25399013E-05  8.54424645E-06 -7.31119090E-05 -2.57253450E-05 -1.00099052E-04
 -2.15688912E-04  5.74284698E-06  2.76544567E-04 -3.23136993E-05  3.39636132E-04
  1.78225473E-03  2.88028695E-04 -2.63349766E-05  4.28762560E-05 -1.51504822E-04
 -5.71796230E-05  2.40333059E-04 -8.23206834E-04 -5.00425667E-04  1.02405622E-04
 -7.22403412E-05 -3.11720442E-04  1.53321762E-07  2.78551771E-06 -4.26886684E-05
  3.19310498E-05  6.02342299E-06 -1.43936374E-05 -8.71962346E-05  2.32699949E-04
 -1.78761144E-04 -1.15435820E-04 -3.36137161E-04 -9.51915716E-04 -4.61589088E-04
  3.56058536E-05 -1.53275662E-04 -1.24587117E-06  3.19240594E-05 -6.47952990E-04
  1.43900644E-05  1.13756728E-04 -2.50121815E-04  1.54443490E-04  3.90573828E-04
 -4.70060028E-05 -1.25399024E-05 -8.54424634E-06  7.31119045E-05  2.57253432E-05
  1.00099035E-04  2.15688913E-04 -5.74285390E-06 -2.76544552E-04  3.23136998E-05
 -6.90623402E-01  6.36323129E-03 -3.08808531E-02  5.99711795E-04  1.18694831E-03
  7.53260297E-04  9.57312591E-04  3.71673146E-04 -6.27264573E-04 -9.06864232E-04
 -3.45965777E-04  7.31396992E-06 -7.41869806E-04 -5.23521273E-04 -2.90703684E-04
  7.14039354E-05  3.40767853E-04  2.78598744E-05  2.42511968E-05 -4.02379101E-05
 -1.54662396E-05  1.60463493E-05 -2.39707728E-04 -1.73433956E-04  3.45651082E-04
  7.14724107E-05 -1.44116787E-04 -1.21816461E-04  1.42127374E-04 -4.31539347E-05
 -1.24469625E-04  1.56400650E-05  8.16425156E-06 -8.43147910E-06  1.18592136E-05
  1.05347871E-05 -1.11205335E-05  6.32229974E-06 -4.92190861E-07  3.12159954E-05
  7.96692002E-05 -3.91808324E-05  6.42668488E-05  7.42002237E-05 -1.32072044E-04
  1.73973721E-05 -3.39636114E-04 -1.78225470E-03 -2.88028734E-04  2.63349790E-05
  4.28762540E-05 -1.51504817E-04 -5.71796200E-05  2.40333055E-04 -8.23206805E-04
 -5.00425656E-04  1.02405630E-04 -7.22403356E-05 -3.11720444E-04 -1.53321302E-07
 -2.78551721E-06  4.26886641E-05 -3.19310465E-05 -6.02342158E-06  1.43936317E-05
  8.71962334E-05 -2.32699938E-04  1.78761133E-04  1.15435814E-04  6.90613347E-01
 -6.43402740E-03  3.08543979E-02  7.30231490E-04  8.49511902E-04  7.44871252E-04
  9.45248162E-04  3.68702035E-04 -6.16711867E-04 -7.64969434E-04 -2.66570328E-04
  1.92819213E-04  3.12761997E-05 -3.71464743E-04  1.50816961E-04  1.63348126E-04
 -1.76656474E-04 -3.20512389E-05 -1.76766625E-05  3.37859295E-05  9.09330341E-06
 -1.42535868E-05  2.12445041E-04  9.85531191E-05 -2.48572167E-04 -6.81398136E-05
  9.41365128E-05  1.03390939E-04 -1.00568318E-04  2.03645642E-04 -1.10403066E-04
 -4.66356301E-05  8.53757887E-06 -1.92290642E-05  4.43923438E-06 -1.52576177E-05
 -2.14993953E-05  2.49434853E-05 -4.18220830E-06  2.32039715E-05  1.23639561E-04
 -2.99874658E-05  6.08073631E-05  1.01125073E-04 -1.23189395E-04 -2.92448647E-06
  3.50261559E-04  8.16376840E-04 -4.41638550E-04 -4.30504670E-05 -1.05709826E-04
  4.33499913E-07 -6.35969797E-06 -5.83301911E-04  6.46305835E-06  1.92589638E-04
 -4.48311954E-04  3.21758183E-04  4.74031903E-04  6.11936949E-05 -2.31105513E-05
  2.24648898E-06 -8.86744515E-05 -3.55002606E-05 -3.46803727E-04  2.40500120E-05
 -1.35484421E-04  2.88260630E-04  1.00250020E-05  3.61197610E-04  6.72034125E-04
 -7.46539676E-04  4.74624488E-05  3.85266639E-05 -1.02979905E-04 -5.89538274E-05
  8.10489432E-05 -5.79036494E-04 -2.15042335E-04 -1.41402899E-04 -1.10710508E-04
  3.46533900E-05  8.96693223E-06  9.73984781E-06 -8.33238420E-05  6.42450399E-05
  2.76269352E-05 -1.11608145E-04 -2.14837602E-05  2.25572951E-04 -2.22916914E-04
 -1.10742546E-04  3.50261576E-04  8.16376889E-04 -4.41638526E-04 -4.30504688E-05
  1.05709834E-04 -4.33499846E-07  6.35969634E-06  5.83301944E-04 -6.46305909E-06
 -1.92589644E-04  4.48311966E-04 -3.21758191E-04 -4.74031923E-04  6.11936973E-05
 -2.31105506E-05  2.24648942E-06 -8.86744552E-05 -3.55002619E-05 -3.46803732E-04
  2.40500009E-05 -1.35484421E-04  2.88260644E-04  1.00250004E-05  6.90613382E-01
 -6.43402772E-03  3.08543994E-02  7.30231459E-04  8.49511841E-04 -7.44871291E-04
 -9.45248211E-04 -3.68702054E-04  6.16711899E-04  7.64969480E-04  2.66570346E-04
 -1.92819214E-04 -3.12761616E-05  3.71464770E-04 -1.50816946E-04 -1.63348130E-04
  1.76656457E-04 -3.20512403E-05 -1.76766638E-05  3.37859316E-05  9.09330420E-06
 -1.42535877E-05  2.12445054E-04  9.85531279E-05 -2.48572184E-04 -6.81398172E-05
  9.41365202E-05  1.03390945E-04 -1.00568325E-04  2.03645644E-04 -1.10403059E-04
 -4.66356309E-05 -8.53757928E-06  1.92290646E-05 -4.43923499E-06  1.52576172E-05
  2.14993959E-05 -2.49434856E-05  4.18220833E-06 -2.32039731E-05 -1.23639565E-04
  2.99874678E-05 -6.08073664E-05 -1.01125076E-04  1.23189401E-04  2.92448557E-06
  3.61197627E-04  6.72034216E-04 -7.46539661E-04  4.74624474E-05 -3.85266661E-05
  1.02979913E-04  5.89538304E-05 -8.10489555E-05  5.79036536E-04  2.15042360E-04
  1.41402894E-04  1.10710512E-04 -3.46533741E-05  8.96693223E-06  9.73984795E-06
 -8.33238441E-05  6.42450415E-05  2.76269355E-05 -1.11608146E-04 -2.14837647E-05
  2.25572963E-04 -2.22916923E-04 -1.10742552E-04 -1.41930529E-01  3.43381810E-01
  9.33089935E-02  2.07636969E-01  2.51196373E-02  1.90738373E-02  2.14704300E-02
  7.13583939E-03  2.74203955E-02  3.05498498E-02  1.02917091E-02  8.41655849E-03
  5.69280697E-03 -3.65308544E-04  1.98275013E-03  1.37756572E-03  5.33039250E-04
 -1.62683994E-03 -8.84244729E-04  1.69982038E-03  6.66251718E-04 -5.07329689E-04
 -4.05382046E-03 -1.79726849E-03  4.27097193E-03  1.67599132E-03 -4.04503835E-04
  2.54677068E-03  6.29764927E-04 -7.39908704E-04 -5.95749643E-04  1.36081906E-03
 -4.12348910E-04 -7.63261276E-04 -6.02583327E-05 -1.01365624E-03 -3.79967966E-04
  1.40461077E-03 -2.59797631E-04 -3.22435316E-04 -1.40794038E-04 -1.92071746E-04
 -1.56090420E-04  2.33925303E-04 -8.49547258E-05  1.66337355E-04  6.21668013E-02
  5.19156535E-02 -1.29987286E-02 -9.63741764E-04 -8.97048061E-03 -6.24057498E-05
  8.90763829E-04 -6.39715032E-03  2.50011642E-04  1.25433130E-03  4.19103621E-03
  1.38180093E-03  5.70835734E-04 -7.85243647E-04 -3.08564277E-04 -8.77902329E-05
  1.44770026E-03  1.08095009E-04  6.62216960E-05  4.82728359E-04 -4.15843301E-04
 -6.53102445E-04 -4.66315049E-06  6.08705604E-02  5.38342351E-02 -9.57809860E-03
 -7.54292441E-04  2.76076815E-03 -7.53235781E-03 -4.17785347E-03  2.25860125E-03
 -5.96756846E-03 -3.60965132E-03 -1.61584557E-03  3.54627876E-03  1.48709410E-03