benzene RHF job to obtain orbitals                                      
SP        RHF                                                         STO-3G              
Number of atoms                            I               12
Info1-9                                    I   N=           9
          21          21           0           0           0         110
           1           1           2
Full Title                                 C   N=           3
benzene RHF job to obtain orbitals  
Route                                      C   N=           3
#p RHF/STO-3G Pop=Full Nosymm       
Charge                                     I                0
Multiplicity                               I                1
Number of electrons                        I               42
Number of alpha electrons                  I               21
Number of beta electrons                   I               21
Number of basis functions                  I               36
Number of independent functions            I               36
Number of point charges in /Mol/           I                0
Number of translation vectors              I                0
Atomic numbers                             I   N=          12
           6           6           6           6           6           6
           1           1           1           1           1           1
Nuclear charges                            R   N=          12
  6.00000000E+00  6.00000000E+00  6.00000000E+00  6.00000000E+00  6.00000000E+00
  6.00000000E+00  1.00000000E+00  1.00000000E+00  1.00000000E+00  1.00000000E+00
  1.00000000E+00  1.00000000E+00
Current cartesian coordinates              R   N=          36
 -1.47589644E+00 -1.40354848E+00  0.00000000E+00  1.16057386E+00 -1.40354848E+00
  0.00000000E+00  2.47872964E+00  8.78770137E-01  0.00000000E+00  1.16035465E+00
  3.16252117E+00 -2.26578162E-03 -1.47548259E+00  3.16237377E+00 -3.17096044E-03
 -2.79375742E+00  8.79195325E-01 -1.28879322E-03 -2.51479038E+00 -3.20316679E+00
  8.50376756E-04  2.19899349E+00 -3.20353718E+00  2.48498985E-03  4.55682367E+00
  8.78921315E-01  1.19808636E-03  2.20008197E+00  4.96181067E+00 -2.37727546E-03
 -2.51506250E+00  4.96192405E+00 -4.97186943E-03 -4.87170783E+00  8.79541145E-01
 -1.62894392E-03
Number of symbols in /Mol/                 I                0
Int Atom Types                             I   N=          12
           0           0           0           0           0           0
           0           0           0           0           0           0
Force Field                                I                0
Atom Types                                 C   N=          12
                                                            
                                                            
                        
MM charges                                 R   N=          12
  0.00000000E+00  0.00000000E+00  0.00000000E+00  0.00000000E+00  0.00000000E+00
  0.00000000E+00  0.00000000E+00  0.00000000E+00  0.00000000E+00  0.00000000E+00
  0.00000000E+00  0.00000000E+00
Integer atomic weights                     I   N=          12
          12          12          12          12          12          12
           1           1           1           1           1           1
Real atomic weights                        R   N=          12
  1.20000000E+01  1.20000000E+01  1.20000000E+01  1.20000000E+01  1.20000000E+01
  1.20000000E+01  1.00782504E+00  1.00782504E+00  1.00782504E+00  1.00782504E+00
  1.00782504E+00  1.00782504E+00
Atom fragment info                         I   N=          12
           0           0           0           0           0           0
           0           0           0           0           0           0
Atom residue num                           I   N=          12
           0           0           0           0           0           0
           0           0           0           0           0           0
Nuclear spins                              I   N=          12
           0           0           0           0           0           0
           1           1           1           1           1           1
Nuclear ZEff                               R   N=          12
 -3.60000000E+00 -3.60000000E+00 -3.60000000E+00 -3.60000000E+00 -3.60000000E+00
 -3.60000000E+00 -1.00000000E+00 -1.00000000E+00 -1.00000000E+00 -1.00000000E+00
 -1.00000000E+00 -1.00000000E+00
Nuclear ZNuc                               R   N=          12
  6.00000000E+00  6.00000000E+00  6.00000000E+00  6.00000000E+00  6.00000000E+00
  6.00000000E+00  1.00000000E+00  1.00000000E+00  1.00000000E+00  1.00000000E+00
  1.00000000E+00  1.00000000E+00
Nuclear QMom                               R   N=          12
  0.00000000E+00  0.00000000E+00  0.00000000E+00  0.00000000E+00  0.00000000E+00
  0.00000000E+00  0.00000000E+00  0.00000000E+00  0.00000000E+00  0.00000000E+00
  0.00000000E+00  0.00000000E+00
Nuclear GFac                               R   N=          12
  0.00000000E+00  0.00000000E+00  0.00000000E+00  0.00000000E+00  0.00000000E+00
  0.00000000E+00  2.79284600E+00  2.79284600E+00  2.79284600E+00  2.79284600E+00
  2.79284600E+00  2.79284600E+00
MicOpt                                     I   N=          12
          -1          -1          -1          -1          -1          -1
          -1          -1          -1          -1          -1          -1
Number of residues                         I                0
Number of secondary structures             I                0
SymInf integers                            I   N=          26
           1           1           1           1           1           0
           0           0           0           0           0           0
           0           0           0           0           0           0
           0           0           0           0           0           0
           0           0
RotTr to input orientation                 R   N=          12
  1.00000000E+00  0.00000000E+00  0.00000000E+00  0.00000000E+00  1.00000000E+00
  0.00000000E+00  0.00000000E+00  0.00000000E+00  1.00000000E+00 -0.00000000E+00
 -0.00000000E+00 -0.00000000E+00
Number of contracted shells                I               18
Number of primitive shells                 I               54
Pure/Cartesian d shells                    I                0
Pure/Cartesian f shells                    I                0
Highest angular momentum                   I                1
Largest degree of contraction              I                3
Shell types                                I   N=          18
           0          -1           0          -1           0          -1
           0          -1           0          -1           0          -1
           0           0           0           0           0           0
Number of primitives per shell             I   N=          18
           3           3           3           3           3           3
           3           3           3           3           3           3
           3           3           3           3           3           3
Shell to atom map                          I   N=          18
           1           1           2           2           3           3
           4           4           5           5           6           6
           7           8           9          10          11          12
Primitive exponents                        R   N=          54
  7.16168373E+01  1.30450963E+01  3.53051216E+00  2.94124936E+00  6.83483096E-01
  2.22289916E-01  7.16168373E+01  1.30450963E+01  3.53051216E+00  2.94124936E+00
  6.83483096E-01  2.22289916E-01  7.16168373E+01  1.30450963E+01  3.53051216E+00
  2.94124936E+00  6.83483096E-01  2.22289916E-01  7.16168373E+01  1.30450963E+01
  3.53051216E+00  2.94124936E+00  6.83483096E-01  2.22289916E-01  7.16168373E+01
  1.30450963E+01  3.53051216E+00  2.94124936E+00  6.83483096E-01  2.22289916E-01
  7.16168373E+01  1.30450963E+01  3.53051216E+00  2.94124936E+00  6.83483096E-01
  2.22289916E-01  3.42525091E+00  6.23913730E-01  1.68855404E-01  3.42525091E+00
  6.23913730E-01  1.68855404E-01  3.42525091E+00  6.23913730E-01  1.68855404E-01
  3.42525091E+00  6.23913730E-01  1.68855404E-01  3.42525091E+00  6.23913730E-01
  1.68855404E-01  3.42525091E+00  6.23913730E-01  1.68855404E-01
Contraction coefficients                   R   N=          54
  1.54328967E-01  5.35328142E-01  4.44634542E-01 -9.99672292E-02  3.99512826E-01
  7.00115469E-01  1.54328967E-01  5.35328142E-01  4.44634542E-01 -9.99672292E-02
  3.99512826E-01  7.00115469E-01  1.54328967E-01  5.35328142E-01  4.44634542E-01
 -9.99672292E-02  3.99512826E-01  7.00115469E-01  1.54328967E-01  5.35328142E-01
  4.44634542E-01 -9.99672292E-02  3.99512826E-01  7.00115469E-01  1.54328967E-01
  5.35328142E-01  4.44634542E-01 -9.99672292E-02  3.99512826E-01  7.00115469E-01
  1.54328967E-01  5.35328142E-01  4.44634542E-01 -9.99672292E-02  3.99512826E-01
  7.00115469E-01  1.54328967E-01  5.35328142E-01  4.44634542E-01  1.54328967E-01
  5.35328142E-01  4.44634542E-01  1.54328967E-01  5.35328142E-01  4.44634542E-01
  1.54328967E-01  5.35328142E-01  4.44634542E-01  1.54328967E-01  5.35328142E-01
  4.44634542E-01  1.54328967E-01  5.35328142E-01  4.44634542E-01
P(S=P) Contraction coefficients            R   N=          54
  0.00000000E+00  0.00000000E+00  0.00000000E+00  1.55916275E-01  6.07683719E-01
  3.91957393E-01  0.00000000E+00  0.00000000E+00  0.00000000E+00  1.55916275E-01
  6.07683719E-01  3.91957393E-01  0.00000000E+00  0.00000000E+00  0.00000000E+00
  1.55916275E-01  6.07683719E-01  3.91957393E-01  0.00000000E+00  0.00000000E+00
  0.00000000E+00  1.55916275E-01  6.07683719E-01  3.91957393E-01  0.00000000E+00
  0.00000000E+00  0.00000000E+00  1.55916275E-01  6.07683719E-01  3.91957393E-01
  0.00000000E+00  0.00000000E+00  0.00000000E+00  1.55916275E-01  6.07683719E-01
  3.91957393E-01  0.00000000E+00  0.00000000E+00  0.00000000E+00  0.00000000E+00
  0.00000000E+00  0.00000000E+00  0.00000000E+00  0.00000000E+00  0.00000000E+00
  0.00000000E+00  0.00000000E+00  0.00000000E+00  0.00000000E+00  0.00000000E+00
  0.00000000E+00  0.00000000E+00  0.00000000E+00  0.00000000E+00
Coordinates of each shell                  R   N=          54
 -1.47589644E+00 -1.40354848E+00  0.00000000E+00 -1.47589644E+00 -1.40354848E+00
  0.00000000E+00  1.16057386E+00 -1.40354848E+00  0.00000000E+00  1.16057386E+00
 -1.40354848E+00  0.00000000E+00  2.47872964E+00  8.78770137E-01  0.00000000E+00
  2.47872964E+00  8.78770137E-01  0.00000000E+00  1.16035465E+00  3.16252117E+00
 -2.26578162E-03  1.16035465E+00  3.16252117E+00 -2.26578162E-03 -1.47548259E+00
  3.16237377E+00 -3.17096044E-03 -1.47548259E+00  3.16237377E+00 -3.17096044E-03
 -2.79375742E+00  8.79195325E-01 -1.28879322E-03 -2.79375742E+00  8.79195325E-01
 -1.28879322E-03 -2.51479038E+00 -3.20316679E+00  8.50376756E-04  2.19899349E+00
 -3.20353718E+00  2.48498985E-03  4.55682367E+00  8.78921315E-01  1.19808636E-03
  2.20008197E+00  4.96181067E+00 -2.37727546E-03 -2.51506250E+00  4.96192405E+00
 -4.97186943E-03 -4.87170783E+00  8.79541145E-01 -1.62894392E-03
Num ILSW                                   I              100
ILSW                                       I   N=         100
           0           0           0           0           2           0
           0           0           0           0           0          -1
           5           0           0           0           0           0
           0           0           0           0           0           0
           1           1           0           0           0           0
           0           0      100000           0          -1           0
           0           0           0           0           0           0
           0           0           0           1           0           0
           0 -2000000000           1           0           0           0
           0           0           4          65           0           0
           0           0           0           0           0           0
           0           0           0          12           0           1
           0           0           0           0           0           0
           0           0           0           0           0           0
           0           0           0           0           0           0
           0           0           0           0           0           0
           0           0           0           0
Num RLSW                                   I               65
RLSW                                       R   N=          65
  1.00000000E+00  1.00000000E+00  1.00000000E+00  1.00000000E+00  1.00000000E+00
  0.00000000E+00  0.00000000E+00  1.00000000E+00  0.00000000E+00  0.00000000E+00
  0.00000000E+00  0.00000000E+00  1.00000000E+00  0.00000000E+00  0.00000000E+00
  0.00000000E+00  0.00000000E+00  1.00000000E+00  0.00000000E+00  0.00000000E+00
  0.00000000E+00  0.00000000E+00  1.00000000E+00  0.00000000E+00  0.00000000E+00
  0.00000000E+00  0.00000000E+00  1.00000000E+00  0.00000000E+00  0.00000000E+00
  0.00000000E+00  0.00000000E+00  1.00000000E+00  0.00000000E+00  0.00000000E+00
  0.00000000E+00  0.00000000E+00  0.00000000E+00  1.00000000E+00  1.00000000E+00
  0.00000000E+00  1.00000000E+00  0.00000000E+00  0.00000000E+00  0.00000000E+00
  0.00000000E+00  0.00000000E+00  0.00000000E+00  0.00000000E+00  0.00000000E+00
  0.00000000E+00  0.00000000E+00  1.00000000E+00  1.00000000E+00  1.00000000E+00
  1.00000000E+00  0.00000000E+00  0.00000000E+00  0.00000000E+00  0.00000000E+00
  0.00000000E+00  0.00000000E+00  0.00000000E+00  0.00000000E+00  2.00000000E-11
MxBond                                     I                3
NBond                                      I   N=          12
           3           3           3           3           3           3
           1           1           1           1           1           1
IBond                                      I   N=          36
           2           6           7           1           3           8
           2           4           9           3           5          10
           4           6          11           1           5          12
           1           0           0           2           0           0
           3           0           0           4           0           0
           5           0           0           6           0           0
RBond                                      R   N=          36
  1.50000000E+00  1.50000000E+00  1.00000000E+00  1.50000000E+00  1.50000000E+00
  1.00000000E+00  1.50000000E+00  1.50000000E+00  1.00000000E+00  1.50000000E+00
  1.50000000E+00  1.00000000E+00  1.50000000E+00  1.50000000E+00  1.00000000E+00
  1.50000000E+00  1.50000000E+00  1.00000000E+00  1.00000000E+00  0.00000000E+00
  0.00000000E+00  1.00000000E+00  0.00000000E+00  0.00000000E+00  1.00000000E+00
  0.00000000E+00  0.00000000E+00  1.00000000E+00  0.00000000E+00  0.00000000E+00
  1.00000000E+00  0.00000000E+00  0.00000000E+00  1.00000000E+00  0.00000000E+00
  0.00000000E+00
Virial Ratio                               R      2.008778727459069E+00
SCF Energy                                 R     -2.278894099055279E+02
Total Energy                               R     -2.278894099055279E+02
RMS Density                                R      2.495582799594853E-09
Job Status                                 I                1
Nuclear derivative order                   I                0
External E-field                           R   N=         105
  0.00000000E+00  0.00000000E+00  0.00000000E+00  0.00000000E+00  0.00000000E+00
  0.00000000E+00  0.00000000E+00  0.00000000E+00  0.00000000E+00  0.00000000E+00
  0.00000000E+00  0.00000000E+00  0.00000000E+00  0.00000000E+00  0.00000000E+00
  0.00000000E+00  0.00000000E+00  0.00000000E+00  0.00000000E+00  0.00000000E+00
  0.00000000E+00  0.00000000E+00  0.00000000E+00  0.00000000E+00  0.00000000E+00
  0.00000000E+00  0.00000000E+00  0.00000000E+00  0.00000000E+00  0.00000000E+00
  0.00000000E+00  0.00000000E+00  0.00000000E+00  0.00000000E+00  0.00000000E+00
  0.00000000E+00  0.00000000E+00  0.00000000E+00  0.00000000E+00  0.00000000E+00
  0.00000000E+00  0.00000000E+00  0.00000000E+00  0.00000000E+00  0.00000000E+00
  0.00000000E+00  0.00000000E+00  0.00000000E+00  0.00000000E+00  0.00000000E+00
  0.00000000E+00  0.00000000E+00  0.00000000E+00  0.00000000E+00  0.00000000E+00
  0.00000000E+00  0.00000000E+00  0.00000000E+00  0.00000000E+00  0.00000000E+00
  0.00000000E+00  0.00000000E+00  0.00000000E+00  0.00000000E+00  0.00000000E+00
  0.00000000E+00  0.00000000E+00  0.00000000E+00  0.00000000E+00  0.00000000E+00
  0.00000000E+00  0.00000000E+00  0.00000000E+00  0.00000000E+00  0.00000000E+00
  0.00000000E+00  0.00000000E+00  0.00000000E+00  0.00000000E+00  0.00000000E+00
  0.00000000E+00  0.00000000E+00  0.00000000E+00  0.00000000E+00  0.00000000E+00
  0.00000000E+00  0.00000000E+00  0.00000000E+00  0.00000000E+00  0.00000000E+00
  0.00000000E+00  0.00000000E+00  0.00000000E+00  0.00000000E+00  0.00000000E+00
  0.00000000E+00  0.00000000E+00  0.00000000E+00  0.00000000E+00  0.00000000E+00
  0.00000000E+00  0.00000000E+00  0.00000000E+00  0.00000000E+00  0.00000000E+00
IOpCl                                      I                0
IROHF                                      I                0
Alpha Orbital Energies                     R   N=          36
 -1.10292976E+01 -1.10292959E+01 -1.10292694E+01 -1.10289412E+01 -1.10289400E+01
 -1.10287960E+01 -1.08911648E+00 -9.52620608E-01 -9.52574810E-01 -7.63175471E-01
 -7.63124124E-01 -6.57242561E-01 -5.87597426E-01 -5.52426137E-01 -5.30407335E-01
 -5.30387221E-01 -4.55723187E-01 -4.29957274E-01 -4.29865096E-01 -2.79406547E-01
 -2.79336108E-01  2.69248111E-01  2.69338469E-01  5.04282248E-01  5.64731951E-01
  6.36471915E-01  6.36596327E-01  7.06742508E-01  7.26003768E-01  7.26068760E-01
  8.74950557E-01  8.75040618E-01  8.93999172E-01  8.94173232E-01  1.08777576E+00
  1.14436885E+00
Alpha MO coefficients                      R   N=        1296
 -3.83261887E-01 -1.14667809E-02  2.13063177E-03 -1.01897903E-03  1.00855922E-06
 -4.80888642E-01 -1.43233486E-02 -1.20968895E-03 -3.99174608E-04 -2.09300635E-06
 -5.45489764E-02 -2.01250837E-03  1.26927890E-04 -3.68038305E-03  2.14004321E-06
  4.89219062E-01  1.39887201E-02  2.37178616E-03 -7.63300879E-04  2.14732687E-06
  5.87475234E-01  1.68747430E-02 -1.44774868E-03 -1.45256682E-04 -6.47590218E-08
  1.39839754E-01  3.64811110E-03 -2.87862359E-04 -3.68372195E-03  2.28418279E-06
  2.47310644E-03  3.10711466E-03  3.41248657E-04 -3.19182462E-03 -3.82987824E-03
 -9.20665375E-04 -3.26051914E-01 -9.74798968E-03 -2.41344040E-03  1.58140797E-03
 -1.02899704E-06  2.34135550E-01  6.56262353E-03 -2.89467971E-03 -2.01722329E-03
  1.20979956E-06  6.00370775E-01  1.73177237E-02  5.77218424E-04 -6.23916906E-04
 -3.03808056E-08  3.97565493E-01  1.13995427E-02 -2.33027781E-03  1.82319944E-03
 -1.33266329E-06 -1.71271792E-01 -5.29409432E-03 -3.02381552E-03 -1.76840358E-03
  4.93214736E-07 -5.25511610E-01 -1.55245282E-02  3.38476614E-04 -5.85886778E-04
  1.01154028E-06  2.10697497E-03 -1.52968102E-03 -3.90900815E-03 -2.59244840E-03
  1.10308571E-03  3.40126470E-03  4.86733234E-01  1.15511908E-02 -8.16192475E-04
 -1.30802243E-03  3.64953807E-07  4.49733082E-01  1.04548478E-02  1.16143435E-03
 -1.07996719E-03  2.39029621E-06  3.64134464E-01  7.96908103E-03  1.44266664E-03
  5.14039658E-04  6.71311394E-08  3.13875801E-01  6.46306611E-03  6.75527166E-04
  1.24377390E-03 -9.96048541E-08  3.54515689E-01  7.71705811E-03 -3.10893091E-04
  1.46674066E-03 -1.23218199E-06  4.36127347E-01  1.00289958E-02 -1.51401193E-03
  5.00947006E-04 -7.93846431E-07 -3.27922910E-03 -3.03842510E-03 -2.48274927E-03
 -2.15560577E-03 -2.42069939E-03 -2.94960344E-03  5.17921646E-01  2.23455972E-02
  2.20778453E-03  7.79158455E-04 -5.18207699E-07 -4.43877078E-01 -1.91804040E-02
  2.81826230E-03 -1.43815375E-04 -2.15243543E-06 -8.46368378E-02 -3.74824270E-03
  3.24316482E-04 -3.86225027E-03  2.36995069E-06  5.37826300E-01  2.34627566E-02
 -2.27376971E-03 -9.17670186E-04  9.31490863E-07 -4.67753354E-01 -2.04159882E-02
 -2.86865036E-03  2.88088453E-04 -1.72690249E-06 -5.64626931E-02 -2.39529811E-03
 -1.78813061E-04  3.87836885E-03 -2.53437468E-06 -3.51079889E-03  3.00883850E-03
  5.76276345E-04 -3.65205561E-03  3.17582639E-03  3.81046847E-04 -2.20673061E-01
 -9.52154598E-03  2.77287255E-03 -2.47704018E-03  1.63833100E-06 -3.56197130E-01
 -1.54149666E-02 -2.07278285E-03 -2.62899442E-03 -1.71403448E-06  5.69121379E-01
  2.47744003E-02 -2.02536135E-03 -5.30376999E-04 -2.10841675E-06 -2.21997430E-01
 -9.73489458E-03 -2.66801761E-03  2.48041230E-03 -3.26715059E-06 -3.33254197E-01
 -1.45591172E-02  2.09404199E-03  2.59695036E-03 -2.13667316E-06  5.69086032E-01
  2.45936112E-02  1.96812378E-03  4.42981534E-04 -1.71571879E-06  1.49540533E-03
  2.41554894E-03 -3.86320002E-03  1.50791608E-03  2.26194223E-03 -3.85924791E-03
  4.21188813E-01  2.16173331E-02  1.29771048E-03  2.24310225E-03 -1.34120512E-06
 -4.14983780E-01 -2.13143083E-02  1.36070499E-03 -2.16732505E-03 -1.96947472E-06
  3.96700991E-01  2.05358425E-02 -2.50024192E-03 -1.11676241E-04 -2.35248458E-06
 -3.87295092E-01 -2.01043931E-02  1.21855557E-03  2.13538275E-03 -2.02332694E-06
  3.93006807E-01  2.03967875E-02  1.15626775E-03 -2.21158726E-03  2.90521799E-06
 -4.14097228E-01 -2.12552168E-02 -2.54823026E-03  1.12071293E-04  1.06844157E-06
 -2.95045721E-03  2.90828215E-03 -2.78360653E-03  2.72008033E-03 -2.75865756E-03
  2.90205466E-03 -1.04653598E-01  2.65158893E-01  3.14871418E-02  5.45997141E-02
 -2.92224520E-05 -1.04655503E-01  2.65155893E-01 -3.14826889E-02  5.45978721E-02
  7.07812182E-06 -1.04609138E-01  2.65057491E-01 -6.30126319E-02 -9.25710596E-05
 -4.60355099E-05 -1.04590645E-01  2.65017689E-01 -3.15599833E-02 -5.45285344E-02
  3.69462428E-05 -1.04630674E-01  2.65102340E-01  3.15179619E-02 -5.45748721E-02
  6.35051404E-05 -1.04650718E-01  2.65149355E-01  6.30250855E-02 -3.93950194E-05
 -1.34354715E-05  4.58268185E-02  4.58231983E-02  4.58016246E-02  4.57930690E-02
  4.58035886E-02  4.58260081E-02 -3.75086715E-02  1.01481762E-01  1.13545574E-01
 -5.66810525E-02  4.36525823E-05 -1.41552706E-01  3.82934456E-01  1.52689903E-02
  4.23234283E-02  4.95849491E-05 -1.04002780E-01  2.81360842E-01 -2.13501745E-02
 -9.25254119E-02  2.08881272E-05  3.76239769E-02 -1.01776943E-01  1.13572459E-01
 -5.66424842E-02  7.46532044E-05  1.41510405E-01 -3.82839017E-01  1.50937908E-02
  4.22414829E-02 -4.90486777E-05  1.03942858E-01 -2.81202693E-01 -2.13104497E-02
 -9.23581695E-02  8.21737793E-05  2.72801961E-02  1.02920808E-01  7.56118665E-02
 -2.73385408E-02 -1.02876285E-01 -7.55897202E-02  1.41740887E-01 -3.83460256E-01
  1.46455192E-02 -4.19868126E-02  2.90396588E-05  3.82540665E-02 -1.03503628E-01
  1.13484762E-01  5.64746635E-02 -1.57614500E-05 -1.03370024E-01  2.79679454E-01
 -2.11864646E-02  9.28002947E-02 -7.91757482E-05 -1.41732134E-01  3.83471069E-01
  1.44182776E-02 -4.18855263E-02  5.42266721E-05 -3.84229017E-02  1.03942159E-01
  1.13538210E-01  5.64402919E-02 -8.72204494E-06  1.03416322E-01 -2.79773255E-01
 -2.11832671E-02  9.30186547E-02 -4.29275704E-05 -1.03087108E-01 -2.78329155E-02
  7.51774239E-02  1.03070946E-01  2.79244351E-02 -7.52112858E-02 -1.08687527E-01
  3.21649474E-01  2.40869709E-02 -1.03327628E-01  4.72760235E-05  2.36296094E-02
 -6.99003492E-02 -2.06577540E-01 -9.98354630E-02 -2.76350399E-05  8.49893989E-02
 -2.51494333E-01 -6.05175995E-02  1.56310787E-01 -9.79951347E-05 -1.08683450E-01
  3.21642086E-01 -2.39953996E-02  1.03222647E-01 -5.20528980E-05  2.36935430E-02
 -7.01352714E-02  2.06632077E-01  9.97734413E-02 -3.07649269E-05  8.50399889E-02
 -2.51675727E-01  6.06096967E-02 -1.56377341E-01  1.29557637E-04  1.67087691E-01
 -3.62730148E-02 -1.30613420E-01  1.67035291E-01 -3.64660318E-02 -1.30757393E-01
  3.53813076E-02 -1.04691121E-01  2.05187637E-01 -8.93480661E-02  6.34171413E-05
 -1.11818581E-01  3.30922360E-01 -2.18789038E-03 -9.32938791E-02  1.14456224E-04
  7.64546853E-02 -2.26309212E-01 -5.45191768E-02 -1.73936113E-01  7.32374250E-05
  3.54624373E-02 -1.04994267E-01 -2.05226027E-01  8.92505725E-02 -1.59448549E-04
 -1.11819202E-01  3.30926801E-01  2.02462472E-03  9.31349442E-02 -7.22411764E-05
  7.63682947E-02 -2.25993364E-01  5.44490578E-02  1.73945658E-01 -1.04618553E-04
 -5.43875988E-02  1.71924667E-01 -1.17581863E-01 -5.45980149E-02  1.71865853E-01
 -1.17412950E-01  9.35911795E-03 -3.86325811E-02  1.16998995E-01  2.02802587E-01
 -1.14959575E-04  9.38260179E-03 -3.87123167E-02 -1.17014768E-01  2.02807121E-01
 -1.89884113E-04  9.36236196E-03 -3.86397470E-02 -2.34025779E-01 -6.62008814E-06
 -1.38752975E-04  9.38830971E-03 -3.87221119E-02 -1.17023917E-01 -2.02662404E-01
  5.16208285E-05  9.38388938E-03 -3.87179770E-02  1.17051296E-01 -2.02680364E-01
  1.79695535E-04  9.36348166E-03 -3.86463625E-02  2.34124881E-01 -9.89686160E-05
  1.57469893E-05 -1.76477065E-01 -1.76513708E-01 -1.76403717E-01 -1.76437861E-01
 -1.76444298E-01 -1.76478627E-01 -6.50584071E-02  2.20169502E-01 -8.19270338E-02
 -1.41718107E-01  3.40910508E-05  6.50708239E-02 -2.20201500E-01 -8.15883738E-02
  1.41599126E-01 -1.64648779E-04 -6.50605320E-02  2.20181209E-01  1.63672458E-01
 -1.41071112E-05  8.22654082E-05  6.50559890E-02 -2.20162172E-01 -8.19940415E-02
 -1.41618759E-01 -3.24221874E-06 -6.50755988E-02  2.20225214E-01 -8.16690634E-02
  1.41569862E-01 -1.96423502E-04  6.50591472E-02 -2.20168635E-01  1.63636113E-01
 -7.09539786E-05 -3.51213595E-05  2.32601126E-01 -2.32387562E-01  2.32584572E-01
 -2.32554369E-01  2.32398753E-01 -2.32555012E-01 -3.77832259E-05  1.53968934E-04
  2.87777121E-01 -1.65713322E-01  5.55695431E-05  3.16342357E-05 -6.47387640E-05
 -2.87822000E-01 -1.65945689E-01 -2.53514296E-05 -4.23090112E-06  1.05798152E-04
  4.11336318E-04  3.32046894E-01 -1.45923477E-04  5.04841695E-05 -9.76036014E-05
  2.87729794E-01 -1.65781786E-01  2.78423114E-04  4.51928333E-06  1.62186546E-05
 -2.87720801E-01 -1.66141126E-01  9.06175670E-05 -2.42646472E-06  2.95282516E-05
  4.39377251E-04  3.32067598E-01 -2.53175367E-04 -2.26070285E-04 -1.16701608E-04
  4.14431608E-04  2.84826322E-04  5.09205022E-05 -3.13491623E-04 -1.70886477E-03
  5.36646085E-03  9.85873263E-02 -2.96587469E-02 -7.18816359E-05 -2.31375735E-02
  7.20326023E-02 -1.26796099E-01  3.08481621E-01 -3.45878838E-04 -2.14968969E-02
  6.69404785E-02 -3.06526379E-01 -5.56417789E-02 -2.88614570E-04  1.69385172E-03
 -5.24179514E-03  9.88063201E-02 -2.92180280E-02 -5.83331326E-05  2.31319213E-02
 -7.20393792E-02 -1.26992472E-01  3.08101930E-01 -3.90301815E-04  2.15155044E-02
 -6.70429908E-02 -3.06273423E-01 -5.53233264E-02 -5.64754437E-05 -1.81708881E-02
 -2.55866079E-01 -2.37190394E-01  1.86472169E-02  2.55656168E-01  2.36930671E-01
 -2.57922590E-02  8.03442747E-02  1.77696005E-01  3.21906027E-01 -1.70621826E-04
 -1.14280514E-02  3.56188728E-02 -1.58913524E-01  9.63493749E-02 -9.10126596E-05
  1.43342273E-02 -4.46883569E-02  2.04418309E-01 -8.36808083E-02  2.08792333E-04
  2.57878612E-02 -8.03421289E-02  1.78032904E-01  3.21743251E-01 -6.63057383E-05
  1.14109720E-02 -3.54985810E-02 -1.59320584E-01  9.67261544E-02 -1.10383252E-04
 -1.43211728E-02  4.45782312E-02  2.04739386E-01 -8.38916592E-02  5.85767364E-05
 -2.84466641E-01 -1.26041306E-01  1.58186401E-01  2.84493575E-01  1.26555330E-01
 -1.58507536E-01 -1.20634826E-05  4.21876530E-05  8.75747307E-05  1.14033285E-04
  3.34337862E-01  4.00815090E-05 -1.67749019E-04 -2.21350916E-04  3.37022414E-04
  3.34342346E-01 -3.37136251E-05  1.22203231E-04 -2.95491506E-04  1.19076419E-04
  3.34237523E-01  2.34461041E-05 -9.33403878E-05 -2.11798561E-04  1.75338658E-04
  3.34199292E-01  8.44521172E-06 -3.47717890E-05 -6.76658514E-05  3.92969296E-04
  3.34293071E-01  7.21732199E-06 -1.68793105E-05 -1.54074852E-04  2.48043721E-04
  3.34331656E-01  2.78679558E-05 -1.48397942E-04 -3.09951624E-05 -4.64643270E-05
  7.60314212E-05  1.04226606E-04  6.49965360E-03 -1.26857360E-02 -2.57533002E-01
 -1.40682818E-01  1.16829209E-04 -2.94964145E-04  4.81539443E-04  2.80145855E-01
  1.75712924E-01  3.92134409E-06 -6.14488427E-03  1.18867159E-02 -2.37888064E-01
 -1.77780886E-01 -9.60014124E-05  6.47767257E-03 -1.25770957E-02  2.57300687E-01
  1.40503385E-01  1.04974498E-04 -3.57544686E-04  7.92314891E-04 -2.79832724E-01
 -1.76273689E-01  1.66118945E-04 -6.17937387E-03  1.20652397E-02  2.38215693E-01
  1.77904109E-01 -7.96839289E-05  2.67141051E-01 -1.30537691E-02 -2.53689028E-01
  2.66954326E-01 -1.34438427E-02 -2.53918079E-01 -3.34378707E-03  6.42384342E-03
 -1.89142368E-01  2.59292326E-01 -7.53391113E-06  7.31523500E-03 -1.42481141E-02
  1.53650806E-01 -2.36964835E-01  3.22929487E-04 -3.96570940E-03  7.84372715E-03
 -1.52016589E-01  2.79025427E-01 -1.87161849E-04 -3.39818984E-03  6.71815197E-03
  1.88964838E-01 -2.59843373E-01  2.38237039E-04  7.30796053E-03 -1.42145335E-02
 -1.53608881E-01  2.36977175E-01 -2.87507245E-04 -3.90815592E-03  7.53967039E-03
  1.51508371E-01 -2.78880622E-01  2.36065166E-04 -1.38693727E-01  3.00731401E-01
 -1.62003810E-01 -1.39073209E-01  3.00744229E-01 -1.61653980E-01 -8.49287945E-07
 -9.26637866E-06  5.43711598E-05  3.74089231E-05  1.78320726E-01  6.06603823E-05
 -2.70871099E-04 -2.11833251E-04  3.63478119E-04  5.23031639E-01 -1.76622844E-05
  6.71758020E-05 -2.62194368E-04  7.38164402E-05  3.44621856E-01 -1.19731584E-05
  6.07658901E-05  8.85097450E-05 -5.15388981E-05 -1.78899486E-01 -5.36326307E-06
  2.07572110E-05  9.26576324E-05 -5.27498719E-04 -5.22934079E-01  1.57219045E-05
 -6.51622930E-05 -1.93971570E-05 -1.71319247E-04 -3.44193578E-01  3.88295323E-05
  1.47077211E-05 -3.21029481E-05  8.92772364E-05 -7.32194222E-05  6.14569318E-05
 -1.37422484E-05  6.18416072E-05  9.99201339E-05  2.22391067E-04  5.00867250E-01
  1.41301156E-05 -6.64515736E-05 -6.77837727E-05  7.05214967E-05  9.53646568E-02
  2.34077459E-05 -9.99200876E-05  3.23593307E-04 -2.02313745E-04 -4.04933080E-01